********************************************************************************
*                       GENERAL UTILITY LATTICE PROGRAM                        *
*                                 Julian Gale                                  *
*                       Curtin Institute for Computation                       *
*                           Department of Chemistry                            *
*                    Curtin University, Western Australia                      *
********************************************************************************
* Version = 5.1.1 * Last modified =  25th August 2019                          *
********************************************************************************
*  optimise     - perform optimisation run                                     *
*  conp         - constant pressure calculation                                *
*  nosymmetry   - turn off symmetry after initial structure generation         *
*  full         - generate full unit cell when symmetry is removed             *
********************************************************************************
* ASE calculation                                                              *
********************************************************************************


  Job Started  at 15:19.36  7th February   2020                               

  Number of CPUs =     1


  Total number of configurations input =      1

********************************************************************************
*  Input for Configuration =   1                                               *
********************************************************************************

  Formula = O9Sr3Ti3                                                    

  Number of irreducible atoms/shells =      15


  Total number atoms/shells =      15

  Dimensionality = 3               :  Bulk   



  Cartesian lattice vectors (Angstroms) :

        4.000000    0.000000    0.000000
        0.000000    6.000000    0.000000
        0.000000    0.000000   10.000000

  Cell parameters (Angstroms/Degrees):

  a =       4.0000    alpha =  90.0000
  b =       6.0000    beta  =  90.0000
  c =      10.0000    gamma =  90.0000

  Initial cell volume =         240.000000 Angs**3

  Temperature of configuration =  0.000     K 

  Pressure of configuration =         0.000 GPa 

  Fractional coordinates of asymmetric unit :

--------------------------------------------------------------------------------
   No.  Atomic       x           y          z         Charge      Occupancy
        Label      (Frac)      (Frac)     (Frac)        (e)         (Frac)  
--------------------------------------------------------------------------------
      1 O     c    0.000000    0.333330    0.800000    -2.00000    1.000000    
      2 O     c    0.000000 *  0.000000 *  0.800000 *  -2.00000    1.000000    
      3 O     c    0.500000 *  0.666670 *  0.600000 *  -2.00000    1.000000    
      4 O     c    0.000000 *  0.666670 *  0.600000 *  -2.00000    1.000000    
      5 O     c    0.000000 *  0.333330 *  0.000000 *  -2.00000    1.000000    
      6 O     c    0.000000 *  0.666670 *  0.800000 *  -2.00000    1.000000    
      7 O     c    0.000000 *  0.000000 *  0.200000 *  -2.00000    1.000000    
      8 O     c    0.500000 *  0.333330 *  0.200000 *  -2.00000    1.000000    
      9 O     c    0.000000 *  0.000000 *  0.000000 *  -2.00000    1.000000    
     10 Sr    c    0.750000 *  0.166670 *  0.900000 *   2.00000    1.000000    
     11 Sr    c    0.250000 *  0.166670 *  0.900000 *   2.00000    1.000000    
     12 Sr    c    0.250000 *  0.166670 *  0.100000 *   2.00000    1.000000    
     13 Ti    c    0.750000 *  0.166670 *  0.700000 *   4.00000    1.000000    
     14 Ti    c    0.250000 *  0.166670 *  0.500000 *   4.00000    1.000000    
     15 Ti    c    0.250000 *  0.166670 *  0.700000 *   4.00000    1.000000    
--------------------------------------------------------------------------------



********************************************************************************
*  General input information                                                   *
********************************************************************************

  Species output for all configurations : 

--------------------------------------------------------------------------------
  Species    Type    Atomic    Atomic    Charge       Radii (Angs)     Library
                     Number     Mass       (e)     Cova   Ionic  VDW   Symbol
--------------------------------------------------------------------------------
    O        Core        8      16.00  -2.000000   0.730  0.000  1.360          
    Sr       Core       38      87.62   2.000000   1.120  0.000  1.670          
    Ti       Core       22      47.88   4.000000   1.470  0.000  2.190          
--------------------------------------------------------------------------------


  Lattice summation method               =    Ewald          (3-D)
                                         =    Parry          (2-D)
                                         =    Saunders et al (1-D)
  Accuracy factor for lattice sums       =   12.000


  Time limit =      15.00 seconds

  Maximum range for interatomic potentials =    100000.000000 Angstroms

  General interatomic potentials :

--------------------------------------------------------------------------------
Atom  Types   Potential      Parameter       Value         Units   Cutoffs(Ang)
  1     2                                                            Min /  Max 
--------------------------------------------------------------------------------
O    c Sr   c Buckingham    Buckingham A     1952.3900    eV        0.000 10.000
                            Buckingham rho  0.33685000    Ang       
                            Buckingham C     19.220000    eV*Ang^6  
--------------------------------------------------------------------------------
O    c Ti   c Buckingham    Buckingham A     4590.7279    eV        0.000 10.000
                            Buckingham rho  0.26100000    Ang       
                            Buckingham C     0.0000000    eV*Ang^6  
--------------------------------------------------------------------------------
O    c O    c Buckingham    Buckingham A     1388.7700    eV        0.000 10.000
                            Buckingham rho  0.36262000    Ang       
                            Buckingham C     175.00000    eV*Ang^6  
--------------------------------------------------------------------------------
 Calling ------OPTIONS------

********************************************************************************
*  Output for configuration   1                                                *
********************************************************************************


  Components of energy : 

--------------------------------------------------------------------------------
  Interatomic potentials     =         184.55920138 eV    
  Monopole - monopole (real) =          -3.58671899 eV    
  Monopole - monopole (recip)=        -195.13406381 eV    
  Monopole - monopole (total)=        -198.72078279 eV    
--------------------------------------------------------------------------------
  Total lattice energy       =         -14.16158142 eV    
--------------------------------------------------------------------------------
  Total lattice energy       =           -1366.3761 kJ/(mole unit cells)
--------------------------------------------------------------------------------


  Number of variables =       48

  Maximum number of calculations  =          1000
  Maximum Hessian update interval =            10
  Maximum step size               =   1.000000000
  Maximum parameter tolerance     =   0.000010000
  Maximum function  tolerance     =   0.000010000
  Maximum gradient  tolerance     =   0.001000000
  Maximum gradient  component     =   0.010000000

  Cell parameters to be optimised using strains

  Newton-Raphson optimiser to be used

  BFGS hessian update to be used

  Lower half triangular hessian to be used

  Start of bulk optimisation :

  Cycle:      0 Energy:       -14.161581  Gnorm:     35.512526  CPU:    0.015
  ** Hessian calculated **
 Line minimisation2
 ALPHA BEFORE:    1.0000000000000000     
  ** Opt : line minimisation
left   ...       0.00000000     -14.16158142
centre ...       0.25000000     -23.08774784
right  ...       0.50000000     -31.11664048

 ALPHA AFTER:   0.50000000000000000     
  Cycle:      1 Energy:       -31.116640  Gnorm:     33.879537  CPU:    0.030
  ** Hessian calculated **
 Line minimisation2
 ALPHA BEFORE:    1.0000000000000000     
  ** Opt : line minimisation
left   ...       0.00000000     -31.11664048
centre ...       0.25000000     -45.60236466
right  ...       0.50000000     -58.92364001

 ALPHA AFTER:   0.50000000000000000     
  Cycle:      2 Energy:       -58.923640  Gnorm:     30.924766  CPU:    0.042
  ** Hessian calculated **
 Line minimisation2
 ALPHA BEFORE:    1.0000000000000000     
  ** Opt : line minimisation
left   ...       0.00000000     -58.92364001
centre ...       0.25000000     -69.39304317
right  ...       0.50000000     -79.10858494

 ALPHA AFTER:   0.50000000000000000     
  Cycle:      3 Energy:       -79.108585  Gnorm:     28.220802  CPU:    0.052
  ** Hessian calculated **
 Line minimisation2
 ALPHA BEFORE:    1.0000000000000000     
  ** Opt : line minimisation
left   ...       0.00000000     -79.10858494
centre ...       0.25000000    -147.85102225
right  ...       0.50000000    -198.53306726

 ALPHA AFTER:   0.50000000000000000     
  Cycle:      4 Energy:      -198.533067  Gnorm:     16.174442  CPU:    0.062
  ** Hessian calculated **
 Line minimisation2
 ALPHA BEFORE:    1.0000000000000000     
  ** Opt : line minimisation
left   ...       0.00000000    -198.53306726
centre ...       0.25000000    -217.82544499
right  ...       0.50000000    -267.57597387

 ALPHA AFTER:   0.50000000000000000     
  Cycle:      5 Energy:      -267.575974  Gnorm:     13.340014  CPU:    0.072
  ** Hessian calculated **
 Line minimisation2
 ALPHA BEFORE:    1.0000000000000000     
  ** Opt : line minimisation
left   ...       0.00000000    -267.57597387
centre ...       0.25000000    -272.05793971
right  ...       0.50000000    -251.66998283

 ALPHA AFTER:   0.25000000000000000     
  Cycle:      6 Energy:      -272.057940  Gnorm:     14.011515  CPU:    0.085
  ** Hessian calculated **
 Line minimisation2
 ALPHA BEFORE:    1.0000000000000000     
  ** Opt : line minimisation
left   ...       0.00000000    -272.05793971
centre ...       0.25000000    -311.12750217
right  ...       0.50000000    -319.84303130

 ALPHA AFTER:   0.50000000000000000     
  Cycle:      7 Energy:      -319.843031  Gnorm:     12.762538  CPU:    0.100
  ** Hessian calculated **
 Line minimisation2
 ALPHA BEFORE:    1.0000000000000000     
  ** Opt : line minimisation
left   ...       0.00000000    -319.84303130
centre ...       0.25000000    -212.11263217
right  ...      -0.25000000    -219.38205984

 ALPHA AFTER:  -0.25000000000000000     
  Cycle:      8 Energy:      -319.843031  Gnorm:     12.762538  CPU:    0.117
  ** Hessian calculated **
 Line minimisation2
 ALPHA BEFORE:    1.0000000000000000     
  ** Opt : line minimisation
left   ...       0.00000000    -319.84303130
centre ...       0.25000000    -212.11263217
right  ...      -0.25000000    -219.38205984

 ALPHA AFTER:  -0.25000000000000000     


  **** Conditions for a minimum have not been satisfied. However ****
  **** no lower point can be found - treat results with caution  ****
  **** unless gradient norm is small (less than 0.1)             ****


  Final energy =    -319.84303130 eV
  Final Gnorm  =      12.76253847

  Components of energy : 

--------------------------------------------------------------------------------
  Interatomic potentials     =          61.00514271 eV    
  Monopole - monopole (real) =        -148.00865369 eV    
  Monopole - monopole (recip)=        -232.83952032 eV    
  Monopole - monopole (total)=        -380.84817401 eV    
--------------------------------------------------------------------------------
  Total lattice energy       =        -319.84303130 eV    
--------------------------------------------------------------------------------
  Total lattice energy       =          -30859.9633 kJ/(mole unit cells)
--------------------------------------------------------------------------------

  Final fractional coordinates of atoms :

--------------------------------------------------------------------------------
   No.  Atomic        x           y          z          Radius
        Label       (Frac)      (Frac)     (Frac)       (Angs) 
--------------------------------------------------------------------------------
     1  O     c     0.000000    0.333330    0.800000    0.000000
     2  O     c     0.977039    0.006607    0.840520    0.000000
     3  O     c     0.383894    0.575599    0.582011    0.000000
     4  O     c     0.831565    0.672615    0.543927    0.000000
     5  O     c     0.006177    0.414318    0.055247    0.000000
     6  O     c     0.671873    0.723311    0.718343    0.000000
     7  O     c     0.368531    0.215243    0.319441    0.000000
     8  O     c     0.548897    0.231275    0.873476    0.000000
     9  O     c     0.076250    0.944270    0.062910    0.000000
    10  Sr    c     0.760637    0.457619    0.942764    0.000000
    11  Sr    c     0.267980    0.072917    0.931330    0.000000
    12  Sr    c     0.337334    0.190073    0.124326    0.000000
    13  Ti    c     0.705513    0.043258    0.762600    0.000000
    14  Ti    c     0.932351    0.174441    0.394109    0.000000
    15  Ti    c     0.209973    0.090805    0.724775    0.000000
--------------------------------------------------------------------------------

  Final Cartesian lattice vectors (Angstroms) :

        5.407902    0.210061   -0.637095
        0.315092    5.185207    1.147766
       -1.592736    1.912943   14.310586


  Final cell parameters and derivatives :

--------------------------------------------------------------------------------
       a            5.449350 Angstrom     dE/de1(xx)   -62.280406 eV/strain
       b            5.320059 Angstrom     dE/de2(yy)    58.267760 eV/strain
       c           14.525461 Angstrom     dE/de3(zz)     5.386812 eV/strain
       alpha       70.463035 Degrees      dE/de4(yz)    33.403560 eV/strain
       beta       102.645799 Degrees      dE/de5(xz)   -51.903234 eV/strain
       gamma       85.921425 Degrees      dE/de6(xy)    -3.927276 eV/strain
--------------------------------------------------------------------------------

  Primitive cell volume =           382.434005 Angs**3

  Density of cell =      2.390324 g/cm**3

  Non-primitive cell volume =           382.434005 Angs**3


  Final internal derivatives :

--------------------------------------------------------------------------------
   No.  Atomic          a             b             c           Radius
        Label          (eV)          (eV)          (eV)        (eV/Angs)
--------------------------------------------------------------------------------
      1 O     c       0.000000      0.000000      0.000000      0.000000
      2 O     c     -17.442583    160.163797    264.729829      0.000000
      3 O     c      49.399607     51.214974    -17.215879      0.000000
      4 O     c     -48.730485     -5.480153    119.445148      0.000000
      5 O     c      -3.557182    -47.252863   -123.967790      0.000000
      6 O     c      34.278622   -139.733018   -254.750583      0.000000
      7 O     c       2.440656     -4.000365    -50.546446      0.000000
      8 O     c      13.897019     58.237626    195.851800      0.000000
      9 O     c     -11.342253     16.572811     -3.275830      0.000000
     10 Sr    c       2.909337     19.069761     93.395253      0.000000
     11 Sr    c      15.429873    -16.421384   -236.082270      0.000000
     12 Sr    c     -10.194403      4.508447    -57.543888      0.000000
     13 Ti    c     -53.948939    -38.908919    -31.566884      0.000000
     14 Ti    c      -1.538453     30.858002      1.663557      0.000000
     15 Ti    c      87.088527    -66.560567   -103.786321      0.000000
--------------------------------------------------------------------------------
  Maximum abs        87.088527    160.163797    264.729829      0.000000
--------------------------------------------------------------------------------


  Time to end of optimisation =       0.1336 seconds

 Exiting ------OPTIONS------

  Peak dynamic memory used =       0.60 MB 


  Timing analysis for GULP :

--------------------------------------------------------------------------------
  Task / Subroutine                                          Time (Seconds)
--------------------------------------------------------------------------------
  Calculation of reciprocal space energy and derivatives          0.0124
  Calculation of real space energy and derivatives                0.1129
  Calculation of matrix inversion                                 0.0004
--------------------------------------------------------------------------------
  Total CPU time                                                  0.1336
--------------------------------------------------------------------------------


  Job Finished at 15:19.36  7th February   2020                               

