********************************************************************************
*                       GENERAL UTILITY LATTICE PROGRAM                        *
*                                 Julian Gale                                  *
*                       Curtin Institute for Computation                       *
*                           Department of Chemistry                            *
*                    Curtin University, Western Australia                      *
********************************************************************************
* Version = 5.1.1 * Last modified =  25th August 2019                          *
********************************************************************************
*  optimise     - perform optimisation run                                     *
*  conp         - constant pressure calculation                                *
*  nosymmetry   - turn off symmetry after initial structure generation         *
*  full         - generate full unit cell when symmetry is removed             *
********************************************************************************
* ASE calculation                                                              *
********************************************************************************


  Job Started  at 11:15.45  3rd February   2020                               

  Number of CPUs =     1


  Total number of configurations input =      1

********************************************************************************
*  Input for Configuration =   1                                               *
********************************************************************************

  Formula = O9Sr3Ti3                                                    

  Number of irreducible atoms/shells =      15


  Total number atoms/shells =      15

  Dimensionality = 3               :  Bulk   



  Cartesian lattice vectors (Angstroms) :

        4.000000    0.000000    0.000000
        0.000000    8.000000    0.000000
        0.000000    0.000000   10.000000

  Cell parameters (Angstroms/Degrees):

  a =       4.0000    alpha =  90.0000
  b =       8.0000    beta  =  90.0000
  c =      10.0000    gamma =  90.0000

  Initial cell volume =         320.000000 Angs**3

  Temperature of configuration =  0.000     K 

  Pressure of configuration =         0.000 GPa 

  Fractional coordinates of asymmetric unit :

--------------------------------------------------------------------------------
   No.  Atomic       x           y          z         Charge      Occupancy
        Label      (Frac)      (Frac)     (Frac)        (e)         (Frac)  
--------------------------------------------------------------------------------
      1 O     c    0.500000    0.250000    0.600000    -2.00000    1.000000    
      2 O     c    0.000000 *  0.750000 *  0.800000 *  -2.00000    1.000000    
      3 O     c    0.500000 *  0.500000 *  0.800000 *  -2.00000    1.000000    
      4 O     c    0.500000 *  0.250000 *  0.000000 *  -2.00000    1.000000    
      5 O     c    0.500000 *  0.500000 *  0.200000 *  -2.00000    1.000000    
      6 O     c    0.000000 *  0.500000 *  0.200000 *  -2.00000    1.000000    
      7 O     c    0.000000 *  0.250000 *  0.600000 *  -2.00000    1.000000    
      8 O     c    0.500000 *  0.250000 *  0.400000 *  -2.00000    1.000000    
      9 O     c    0.500000 *  0.500000 *  0.400000 *  -2.00000    1.000000    
     10 Sr    c    0.250000 *  0.875000 *  0.500000 *   2.00000    1.000000    
     11 Sr    c    0.250000 *  0.125000 *  0.900000 *   2.00000    1.000000    
     12 Sr    c    0.250000 *  0.625000 *  0.900000 *   2.00000    1.000000    
     13 Ti    c    0.750000 *  0.875000 *  0.700000 *   4.00000    1.000000    
     14 Ti    c    0.750000 *  0.375000 *  0.100000 *   4.00000    1.000000    
     15 Ti    c    0.250000 *  0.125000 *  0.500000 *   4.00000    1.000000    
--------------------------------------------------------------------------------



********************************************************************************
*  General input information                                                   *
********************************************************************************

  Species output for all configurations : 

--------------------------------------------------------------------------------
  Species    Type    Atomic    Atomic    Charge       Radii (Angs)     Library
                     Number     Mass       (e)     Cova   Ionic  VDW   Symbol
--------------------------------------------------------------------------------
    O        Core        8      16.00  -2.000000   0.730  0.000  1.360          
    Sr       Core       38      87.62   2.000000   1.120  0.000  1.670          
    Ti       Core       22      47.88   4.000000   1.470  0.000  2.190          
--------------------------------------------------------------------------------


  Lattice summation method               =    Ewald          (3-D)
                                         =    Parry          (2-D)
                                         =    Saunders et al (1-D)
  Accuracy factor for lattice sums       =   12.000


  Time limit = Infinity

  Maximum range for interatomic potentials =    100000.000000 Angstroms

  General interatomic potentials :

--------------------------------------------------------------------------------
Atom  Types   Potential      Parameter       Value         Units   Cutoffs(Ang)
  1     2                                                            Min /  Max 
--------------------------------------------------------------------------------
O    c Sr   c Buckingham    Buckingham A     1952.3900    eV        0.000 10.000
                            Buckingham rho  0.33685000    Ang       
                            Buckingham C     19.220000    eV*Ang^6  
--------------------------------------------------------------------------------
O    c Ti   c Buckingham    Buckingham A     4590.7279    eV        0.000 10.000
                            Buckingham rho  0.26100000    Ang       
                            Buckingham C     0.0000000    eV*Ang^6  
--------------------------------------------------------------------------------
O    c O    c Buckingham    Buckingham A     1388.7700    eV        0.000 10.000
                            Buckingham rho  0.36262000    Ang       
                            Buckingham C     175.00000    eV*Ang^6  
--------------------------------------------------------------------------------
 Calling ------OPTIONS------

********************************************************************************
*  Output for configuration   1                                                *
********************************************************************************


  Components of energy : 

--------------------------------------------------------------------------------
  Interatomic potentials     =          97.01435912 eV    
  Monopole - monopole (real) =        -115.35329340 eV    
  Monopole - monopole (recip)=        -197.84378280 eV    
  Monopole - monopole (total)=        -313.19707620 eV    
--------------------------------------------------------------------------------
  Total lattice energy       =        -216.18271708 eV    
--------------------------------------------------------------------------------
  Total lattice energy       =          -20858.3275 kJ/(mole unit cells)
--------------------------------------------------------------------------------


  Number of variables =       48

  Maximum number of calculations  =          1000
  Maximum Hessian update interval =            10
  Maximum step size               =   1.000000000
  Maximum parameter tolerance     =   0.000010000
  Maximum function  tolerance     =   0.000010000
  Maximum gradient  tolerance     =   0.001000000
  Maximum gradient  component     =   0.010000000

  Cell parameters to be optimised using strains

  Newton-Raphson optimiser to be used

  BFGS hessian update to be used

  Lower half triangular hessian to be used

  Start of bulk optimisation :

  Cycle:      0 Energy:      -216.182717  Gnorm:     26.153688  CPU:    0.017
  ** Hessian calculated **
 Line minimisation2
 ALPHA BEFORE:    1.0000000000000000     
  ** Opt : line minimisation
left   ...       0.00000000    -216.18271708
centre ...       0.25000000    -238.69473902
right  ...       0.50000000    -258.61538053

left   ...       0.00000000    -216.18271708
centre ...       0.25000000    -238.69473902
right  ...       0.50000000    -258.61538053
new    ...       1.50000000    -314.70802431

left   ...       0.25000000    -238.69473902
centre ...       0.50000000    -258.61538053
right  ...       1.50000000    -314.70802431
new    ...       2.48613895    -333.57898113

left   ...       0.50000000    -258.61538053
centre ...       1.50000000    -314.70802431
right  ...       2.48613895    -333.57898113
new    ...       2.50728516    -333.77650909

 ALPHA AFTER:    2.5072851637999034     
  Cycle:      1 Energy:      -333.776509  Gnorm:     21.598656  CPU:    0.027
  ** Hessian calculated **
 Line minimisation2
 ALPHA BEFORE:    1.0000000000000000     
  ** Opt : line minimisation
left   ...       0.00000000    -333.77650909
centre ...       0.25000000    -341.25018853
right  ...       0.50000000    -343.76115627

left   ...       0.00000000    -333.77650909
centre ...       0.25000000    -341.25018853
right  ...       0.50000000    -343.76115627
new    ...       0.50149172    -343.75766387

 ALPHA AFTER:   0.50000000000000000     
  Cycle:      2 Energy:      -343.761156  Gnorm:     12.742195  CPU:    0.035
  ** Hessian calculated **
 Line minimisation2
 ALPHA BEFORE:    1.0000000000000000     
  ** Opt : line minimisation
left   ...       0.00000000    -343.76115627
centre ...       0.25000000    -280.72612214
right  ...      -0.25000000    -364.89056045

left   ...      -0.25000000    -364.89056045
centre ...       0.00000000    -343.76115627
right  ...       0.25000000    -280.72612214
new    ...      -0.25105349    -364.93541348

 ALPHA AFTER:   0.25105349330867555     
  Cycle:      3 Energy:      -364.935413  Gnorm:     10.836965  CPU:    0.040
  ** Hessian calculated **
 Line minimisation2
 ALPHA BEFORE:    1.0000000000000000     
  ** Opt : line minimisation
left   ...       0.00000000    -364.93541348
centre ...       0.25000000    -369.85727789
right  ...       0.50000000    -367.65583908

left   ...       0.00000000    -364.93541348
centre ...       0.25000000    -369.85727789
right  ...       0.50000000    -367.65583908
new    ...       0.29773813    -370.24611619

left   ...       0.25000000    -369.85727789
centre ...       0.29773813    -370.24611619
right  ...       0.50000000    -367.65583908
new    ...       0.32246417    -370.32303717

 ALPHA AFTER:   0.32246417445375847     
  Cycle:      4 Energy:      -370.323037  Gnorm:     10.013412  CPU:    0.048
  ** Hessian calculated **
 Line minimisation2
 ALPHA BEFORE:    1.0000000000000000     
  ** Opt : line minimisation
left   ...       0.00000000    -370.32303717
centre ...       0.25000000    -380.09577265
right  ...       0.50000000    -387.86945465

left   ...       0.00000000    -370.32303717
centre ...       0.25000000    -380.09577265
right  ...       0.50000000    -387.86945465
new    ...       1.30432303    -212.21664108

left   ...       0.25000000    -380.09577265
centre ...       0.50000000    -387.86945465
right  ...       1.30432303    -212.21664108
new    ...       0.50000000    -387.86945465

 ALPHA AFTER:   0.50000000000000000     
  Cycle:      5 Energy:      -387.869455  Gnorm:      8.592391  CPU:    0.057
  ** Hessian calculated **
 Line minimisation2
 ALPHA BEFORE:    1.0000000000000000     
  ** Opt : line minimisation
left   ...       0.00000000    -387.86945465
centre ...       0.25000000    -394.69015069
right  ...       0.50000000    -358.50292559

left   ...       0.00000000    -387.86945465
centre ...       0.25000000    -394.69015069
right  ...       0.50000000    -358.50292559
new    ...       0.16464791    -394.29497388

left   ...       0.16464791    -394.29497388
centre ...       0.25000000    -394.69015069
right  ...       0.50000000    -358.50292559
new    ...       0.21252103    -395.09177676

left   ...       0.16464791    -394.29497388
centre ...       0.21252103    -395.09177676
right  ...       0.25000000    -394.69015069
new    ...       0.21454573    -395.09659190

 ALPHA AFTER:   0.21454572704322480     
  Cycle:      6 Energy:      -395.096592  Gnorm:      6.134196  CPU:    0.067
  ** Hessian calculated **
 Line minimisation2
 ALPHA BEFORE:    1.0000000000000000     
  ** Opt : line minimisation
left   ...       0.00000000    -395.09659190
centre ...       0.25000000    -355.35487915
right  ...      -0.25000000    -374.00616718

left   ...      -0.25000000    -374.00616718
centre ...       0.00000000    -395.09659190
right  ...       0.25000000    -355.35487915
new    ...      -0.03832532    -394.58429147

left   ...      -0.03832532    -394.58429147
centre ...       0.00000000    -395.09659190
right  ...       0.25000000    -355.35487915
new    ...      -0.00798063    -394.89448842

left   ...      -0.00798063    -394.89448842
centre ...       0.00000000    -395.09659190
right  ...       0.25000000    -355.35487915
new    ...       0.01373482    -395.46162785

left   ...       0.00000000    -395.09659190
centre ...       0.01373482    -395.46162785
right  ...       0.25000000    -355.35487915
new    ...       0.02378875    -395.66875377

left   ...       0.01373482    -395.46162785
centre ...       0.02378875    -395.66875377
right  ...       0.25000000    -355.35487915
new    ...       0.03100285    -395.74707305

 ALPHA AFTER:    3.1002853836470740E-002
  Cycle:      7 Energy:      -395.747073  Gnorm:      5.275405  CPU:    0.079
  ** Hessian calculated **
 Line minimisation2
 ALPHA BEFORE:    1.0000000000000000     
  ** Opt : line minimisation
left   ...       0.00000000    -395.74707305
centre ...       0.25000000    -400.53281775
right  ...       0.50000000    -404.01710086

left   ...       0.00000000    -395.74707305
centre ...       0.25000000    -400.53281775
right  ...       0.50000000    -404.01710086
new    ...       1.04430195    -314.80243331

left   ...       0.25000000    -400.53281775
centre ...       0.50000000    -404.01710086
right  ...       1.04430195    -314.80243331
new    ...       0.40612365    -403.25700301

left   ...       0.40612365    -403.25700301
centre ...       0.50000000    -404.01710086
right  ...       1.04430195    -314.80243331
new    ...       0.46808247    -403.90697107

left   ...       0.46808247    -403.90697107
centre ...       0.50000000    -404.01710086
right  ...       1.04430195    -314.80243331
new    ...       0.48998127    -404.00362808

 ALPHA AFTER:   0.50000000000000000     
  Cycle:      8 Energy:      -404.017101  Gnorm:      8.043673  CPU:    0.087
  ** Hessian calculated **
 Line minimisation2
 ALPHA BEFORE:    1.0000000000000000     
  ** Opt : line minimisation
left   ...       0.00000000    -404.01710086
centre ...       0.25000000    -409.82432390
right  ...       0.50000000    -412.47237595

left   ...       0.00000000    -404.01710086
centre ...       0.25000000    -409.82432390
right  ...       0.50000000    -412.47237595
new    ...       0.58455276    -411.42494180

left   ...       0.25000000    -409.82432390
centre ...       0.50000000    -412.47237595
right  ...       0.58455276    -411.42494180
new    ...       0.45210249    -412.58449627

left   ...       0.25000000    -409.82432390
centre ...       0.45210249    -412.58449627
right  ...       0.50000000    -412.47237595
new    ...       0.45776131    -412.59091266

 ALPHA AFTER:   0.45776130682116856     
  Cycle:      9 Energy:      -412.590913  Gnorm:      4.170780  CPU:    0.096
  ** Hessian calculated **
 Line minimisation2
 ALPHA BEFORE:    1.0000000000000000     
  ** Opt : line minimisation
left   ...       0.00000000    -412.59091266
centre ...       0.25000000    -416.49502310
right  ...       0.50000000    -412.59838859

left   ...       0.00000000    -412.59091266
centre ...       0.25000000    -416.49502310
right  ...       0.50000000    -412.59838859
new    ...       0.25011980    -416.49526267

left   ...       0.25000000    -416.49502310
centre ...       0.25011980    -416.49526267
right  ...       0.50000000    -412.59838859
new    ...       0.26426729    -416.50788303

 ALPHA AFTER:   0.26426728753074058     
  Cycle:     10 Energy:      -416.507883  Gnorm:      3.428693  CPU:    0.103
  ** Hessian calculated **
 Line minimisation2
 ALPHA BEFORE:    1.0000000000000000     
  ** Opt : line minimisation
left   ...       0.00000000    -416.50788303
centre ...       0.25000000    -418.82280687
right  ...       0.50000000    -361.98183928

left   ...       0.00000000    -416.50788303
centre ...       0.25000000    -418.82280687
right  ...       0.50000000    -361.98183928
new    ...       0.16680981    -419.75904970

left   ...       0.00000000    -416.50788303
centre ...       0.16680981    -419.75904970
right  ...       0.25000000    -418.82280687
new    ...       0.16264776    -419.72607318

 ALPHA AFTER:   0.16680981354581847     
  Cycle:     11 Energy:      -419.759050  Gnorm:      2.910605  CPU:    0.114
  ** Hessian calculated **
 Line minimisation2
 ALPHA BEFORE:    1.0000000000000000     
  ** Opt : line minimisation
left   ...       0.00000000    -419.75904970
centre ...       0.25000000    -423.09922279
right  ...       0.50000000    -425.22512964

left   ...       0.00000000    -419.75904970
centre ...       0.25000000    -423.09922279
right  ...       0.50000000    -425.22512964
new    ...       0.81269372    -426.64667090

left   ...       0.25000000    -423.09922279
centre ...       0.50000000    -425.22512964
right  ...       0.81269372    -426.64667090
new    ...       0.97953839    -426.93898451

 ALPHA AFTER:   0.97953839335316428     
  Cycle:     12 Energy:      -426.938985  Gnorm:      3.832135  CPU:    0.126
 Line minimisation2
 ALPHA BEFORE:    1.1748522459046125     
  ** Opt : line minimisation
left   ...       0.00000000    -426.93898451
centre ...       0.29371306    -428.75934111
right  ...       0.58742612    -427.21830269

left   ...       0.00000000    -426.93898451
centre ...       0.29371306    -428.75934111
right  ...       0.58742612    -427.21830269
new    ...       0.30591624    -428.75934584

left   ...       0.29371306    -428.75934111
centre ...       0.30591624    -428.75934584
right  ...       0.58742612    -427.21830269
new    ...       0.29982506    -428.76006831

 ALPHA AFTER:   0.29982505716984259     
  Cycle:     13 Energy:      -428.760068  Gnorm:      2.173508  CPU:    0.134
 Line minimisation2
 ALPHA BEFORE:   0.36227887546102294     
  ** Opt : line minimisation
left   ...       0.00000000    -428.76006831
centre ...       0.09056972    -429.05918196
right  ...       0.18113944    -429.28297218

left   ...       0.00000000    -428.76006831
centre ...       0.09056972    -429.05918196
right  ...       0.18113944    -429.28297218
new    ...       0.40494239    -429.51834356

left   ...       0.09056972    -429.05918196
centre ...       0.18113944    -429.28297218
right  ...       0.40494239    -429.51834356
new    ...       0.40952081    -429.51855403

 ALPHA AFTER:   0.40952080870122542     
  Cycle:     14 Energy:      -429.518554  Gnorm:      1.497917  CPU:    0.143
  ** Hessian calculated **
 Line minimisation2
 ALPHA BEFORE:    1.0000000000000000     
  ** Opt : line minimisation
left   ...       0.00000000    -429.51855403
centre ...       0.25000000    -431.18978602
right  ...       0.50000000    -431.84305585

left   ...       0.00000000    -429.51855403
centre ...       0.25000000    -431.18978602
right  ...       0.50000000    -431.84305585
new    ...       0.53543569    -431.88047481

 ALPHA AFTER:   0.53543568769032601     
  Cycle:     15 Energy:      -431.880475  Gnorm:      2.095119  CPU:    0.153
 Line minimisation2
 ALPHA BEFORE:   0.35695712512688399     
  ** Opt : line minimisation
left   ...       0.00000000    -431.88047481
centre ...       0.08923928    -432.75075188
right  ...       0.17847856    -433.67939221

left   ...       0.00000000    -431.88047481
centre ...       0.08923928    -432.75075188
right  ...       0.17847856    -433.67939221
new    ...       0.35695713    -435.52432610

left   ...       0.08923928    -432.75075188
centre ...       0.17847856    -433.67939221
right  ...       0.35695713    -435.52432610
new    ...       1.35695713    -410.86879816

left   ...       0.17847856    -433.67939221
centre ...       0.35695713    -435.52432610
right  ...       1.35695713    -410.86879816
new    ...       0.44178268    -436.25038864

left   ...       0.35695713    -435.52432610
centre ...       0.44178268    -436.25038864
right  ...       1.35695713    -410.86879816
new    ...       0.51728974    -436.70667162

 ALPHA AFTER:   0.51728973649272614     
  Cycle:     16 Energy:      -436.706672  Gnorm:      3.213246  CPU:    0.165
 Line minimisation2
 ALPHA BEFORE:   0.34485982432848411     
  ** Opt : line minimisation
left   ...       0.00000000    -436.70667162
centre ...       0.08621496    -437.54776539
right  ...       0.17242991    -437.49751011

left   ...       0.00000000    -436.70667162
centre ...       0.08621496    -437.54776539
right  ...       0.17242991    -437.49751011
new    ...       0.12446154    -437.65861186

 ALPHA AFTER:   0.12446153547028611     
  Cycle:     17 Energy:      -437.658612  Gnorm:      3.740627  CPU:    0.171
 Line minimisation2
 ALPHA BEFORE:   0.11710867401495370     
  ** Opt : line minimisation
left   ...       0.00000000    -437.65861186
centre ...       0.02927717    -438.13419781
right  ...       0.05855434    -438.50659895

left   ...       0.00000000    -437.65861186
centre ...       0.02927717    -438.13419781
right  ...       0.05855434    -438.50659895
new    ...       0.14957908    -439.01350693

left   ...       0.02927717    -438.13419781
centre ...       0.05855434    -438.50659895
right  ...       0.14957908    -439.01350693
new    ...       0.15091015    -439.01373375

 ALPHA AFTER:   0.15091014674565575     
  Cycle:     18 Energy:      -439.013734  Gnorm:      4.316349  CPU:    0.180
 Line minimisation2
 ALPHA BEFORE:   0.11250219351846366     
  ** Opt : line minimisation
left   ...       0.00000000    -439.01373375
centre ...       0.02812555    -439.85258331
right  ...       0.05625110    -440.66673745

left   ...       0.00000000    -439.01373375
centre ...       0.02812555    -439.85258331
right  ...       0.05625110    -440.66673745
new    ...       0.96942617    -339.17385025

left   ...       0.02812555    -439.85258331
centre ...       0.05625110    -440.66673745
right  ...       0.96942617    -339.17385025
new    ...       0.13943995    -442.77946454

left   ...       0.05625110    -440.66673745
centre ...       0.13943995    -442.77946454
right  ...       0.96942617    -339.17385025
new    ...       0.17503542    -443.41664404

left   ...       0.13943995    -442.77946454
centre ...       0.17503542    -443.41664404
right  ...       0.96942617    -339.17385025
new    ...       0.20705265    -443.74318784

 ALPHA AFTER:   0.20705265424125563     
  Cycle:     19 Energy:      -443.743188  Gnorm:      4.754634  CPU:    0.192
 Line minimisation2
 ALPHA BEFORE:   0.19082062190938059     
  ** Opt : line minimisation
left   ...       0.00000000    -443.74318784
centre ...       0.04770516    -444.98947723
right  ...       0.09541031    -445.18467661

left   ...       0.00000000    -443.74318784
centre ...       0.04770516    -444.98947723
right  ...       0.09541031    -445.18467661
new    ...       0.08041712    -445.26793159

 ALPHA AFTER:    8.0417123511749289E-002
  Cycle:     20 Energy:      -445.267932  Gnorm:      3.553977  CPU:    0.199
 Line minimisation2
 ALPHA BEFORE:   0.28370001383948174     
  ** Opt : line minimisation
left   ...       0.00000000    -445.26793159
centre ...       0.07092500    -446.42018553
right  ...       0.14185001    -447.49063974

left   ...       0.00000000    -445.26793159
centre ...       0.07092500    -446.42018553
right  ...       0.14185001    -447.49063974
new    ...       1.03453195    -444.12475277

left   ...       0.07092500    -446.42018553
centre ...       0.14185001    -447.49063974
right  ...       1.03453195    -444.12475277
new    ...       0.49188458    -450.97425089

left   ...       0.14185001    -447.49063974
centre ...       0.49188458    -450.97425089
right  ...       1.03453195    -444.12475277
new    ...       0.51364055    -451.05505529

 ALPHA AFTER:   0.51364055116697438     
  Cycle:     21 Energy:      -451.055055  Gnorm:      2.690857  CPU:    0.209
 Line minimisation2
 ALPHA BEFORE:   0.51319380250382463     
  ** Opt : line minimisation
left   ...       0.00000000    -451.05505529
centre ...       0.12829845    -452.48595359
right  ...       0.25659690    -453.41244688

left   ...       0.00000000    -451.05505529
centre ...       0.12829845    -452.48595359
right  ...       0.25659690    -453.41244688
new    ...       0.42810682    -453.80102116

 ALPHA AFTER:   0.42810682275522943     
  Cycle:     22 Energy:      -453.801021  Gnorm:      1.986714  CPU:    0.216
 Line minimisation2
 ALPHA BEFORE:   0.55188343721307176     
  ** Opt : line minimisation
left   ...       0.00000000    -453.80102116
centre ...       0.13797086    -454.63987139
right  ...       0.27594172    -455.10388238

left   ...       0.00000000    -453.80102116
centre ...       0.13797086    -454.63987139
right  ...       0.27594172    -455.10388238
new    ...       0.37774950    -455.19253495

 ALPHA AFTER:   0.37774949638399480     
  Cycle:     23 Energy:      -455.192535  Gnorm:      1.352655  CPU:    0.223
 Line minimisation2
 ALPHA BEFORE:   0.42328220758323626     
  ** Opt : line minimisation
left   ...       0.00000000    -455.19253495
centre ...       0.10582055    -455.64392025
right  ...       0.21164110    -456.01383980

left   ...       0.00000000    -455.19253495
centre ...       0.10582055    -455.64392025
right  ...       0.21164110    -456.01383980
new    ...       0.63924056    -456.55224170

left   ...       0.10582055    -455.64392025
centre ...       0.21164110    -456.01383980
right  ...       0.63924056    -456.55224170
new    ...       0.57558926    -456.57894277

 ALPHA AFTER:   0.57558925512732317     
  Cycle:     24 Energy:      -456.578943  Gnorm:      1.874277  CPU:    0.232
  ** Hessian calculated **
 Line minimisation2
 ALPHA BEFORE:    1.0000000000000000     
  ** Opt : line minimisation
left   ...       0.00000000    -456.57894277
centre ...       0.25000000    -457.11381004
right  ...       0.50000000    -457.28321942

left   ...       0.00000000    -456.57894277
centre ...       0.25000000    -457.11381004
right  ...       0.50000000    -457.28321942
new    ...       0.49088845    -457.28348689

 ALPHA AFTER:   0.49088844660737418     
  Cycle:     25 Energy:      -457.283487  Gnorm:      1.012947  CPU:    0.241
 Line minimisation2
 ALPHA BEFORE:   0.44191822866626040     
  ** Opt : line minimisation
left   ...       0.00000000    -457.28348689
centre ...       0.11047956    -457.43865710
right  ...       0.22095911    -457.57891007

left   ...       0.00000000    -457.28348689
centre ...       0.11047956    -457.43865710
right  ...       0.22095911    -457.57891007
new    ...       1.20445619    -458.17301774

left   ...       0.11047956    -457.43865710
centre ...       0.22095911    -457.57891007
right  ...       1.20445619    -458.17301774
new    ...       1.20927368    -458.17305928

 ALPHA AFTER:    1.2092736808662790     
  Cycle:     26 Energy:      -458.173059  Gnorm:      1.156888  CPU:    0.250
 Line minimisation2
 ALPHA BEFORE:   0.80618245391085264     
  ** Opt : line minimisation
left   ...       0.00000000    -458.17305928
centre ...       0.20154561    -458.52254306
right  ...       0.40309123    -458.84131054

left   ...       0.00000000    -458.17305928
centre ...       0.20154561    -458.52254306
right  ...       0.40309123    -458.84131054
new    ...       1.40309123    -459.69202904

left   ...       0.20154561    -458.52254306
centre ...       0.40309123    -458.84131054
right  ...       1.40309123    -459.69202904
new    ...       1.60235415    -459.64008868

 ALPHA AFTER:    1.4030912269554263     
  Cycle:     27 Energy:      -459.692029  Gnorm:      1.285388  CPU:    0.259
 Line minimisation2
 ALPHA BEFORE:   0.96475331958407606     
  ** Opt : line minimisation
left   ...       0.00000000    -459.69202904
centre ...       0.24118833    -460.29282291
right  ...       0.48237666    -460.70213245

left   ...       0.00000000    -459.69202904
centre ...       0.24118833    -460.29282291
right  ...       0.48237666    -460.70213245
new    ...       0.87733738    -460.81831761

 ALPHA AFTER:   0.87733738000067218     
  Cycle:     28 Energy:      -460.818318  Gnorm:      1.418892  CPU:    0.265
 Line minimisation2
 ALPHA BEFORE:   0.92976834255654717     
  ** Opt : line minimisation
left   ...       0.00000000    -460.81831761
centre ...       0.23244209    -461.49350065
right  ...       0.46488417    -461.85670563

left   ...       0.00000000    -460.81831761
centre ...       0.23244209    -461.49350065
right  ...       0.46488417    -461.85670563
new    ...       0.61927229    -461.92980781

 ALPHA AFTER:   0.61927228516829813     
  Cycle:     29 Energy:      -461.929808  Gnorm:      1.231693  CPU:    0.273
 Line minimisation2
 ALPHA BEFORE:   0.68503396082085499     
  ** Opt : line minimisation
left   ...       0.00000000    -461.92980781
centre ...       0.17125849    -462.33328260
right  ...       0.34251698    -462.62545991

left   ...       0.00000000    -461.92980781
centre ...       0.17125849    -462.33328260
right  ...       0.34251698    -462.62545991
new    ...       0.70647418    -462.84542388

left   ...       0.17125849    -462.33328260
centre ...       0.34251698    -462.62545991
right  ...       0.70647418    -462.84542388
new    ...       0.67130018    -462.84895895

 ALPHA AFTER:   0.67130018010029824     
  Cycle:     30 Energy:      -462.848959  Gnorm:      0.907485  CPU:    0.281
 Line minimisation2
 ALPHA BEFORE:   0.89489215143506118     
  ** Opt : line minimisation
left   ...       0.00000000    -462.84895895
centre ...       0.22372304    -463.13235818
right  ...       0.44744608    -463.33807022

left   ...       0.00000000    -462.84895895
centre ...       0.22372304    -463.13235818
right  ...       0.44744608    -463.33807022
new    ...       0.92799266    -463.48369589

left   ...       0.22372304    -463.13235818
centre ...       0.44744608    -463.33807022
right  ...       0.92799266    -463.48369589
new    ...       0.86082523    -463.48939979

 ALPHA AFTER:   0.86082522569802911     
  Cycle:     31 Energy:      -463.489400  Gnorm:      1.026568  CPU:    0.289
 Line minimisation2
 ALPHA BEFORE:   0.83424358981946456     
  ** Opt : line minimisation
left   ...       0.00000000    -463.48939979
centre ...       0.20856090    -463.77466154
right  ...       0.41712179    -463.99711904

left   ...       0.00000000    -463.48939979
centre ...       0.20856090    -463.77466154
right  ...       0.41712179    -463.99711904
new    ...       1.05158014    -464.25893283

left   ...       0.20856090    -463.77466154
centre ...       0.41712179    -463.99711904
right  ...       1.05158014    -464.25893283
new    ...       1.00032338    -464.26257353

 ALPHA AFTER:    1.0003233836328556     
  Cycle:     32 Energy:      -464.262574  Gnorm:      1.047462  CPU:    0.298
 Line minimisation2
 ALPHA BEFORE:   0.66688225575523696     
  ** Opt : line minimisation
left   ...       0.00000000    -464.26257353
centre ...       0.16672056    -464.55029330
right  ...       0.33344113    -464.80322288

left   ...       0.00000000    -464.26257353
centre ...       0.16672056    -464.55029330
right  ...       0.33344113    -464.80322288
new    ...       1.33344113    -465.32839258

left   ...       0.16672056    -464.55029330
centre ...       0.33344113    -464.80322288
right  ...       1.33344113    -465.32839258
new    ...       1.14230073    -465.39124986

 ALPHA AFTER:    1.1423007266809331     
  Cycle:     33 Energy:      -465.391250  Gnorm:      1.322554  CPU:    0.306
 Line minimisation2
 ALPHA BEFORE:   0.76153381778728879     
  ** Opt : line minimisation
left   ...       0.00000000    -465.39124986
centre ...       0.19038345    -465.83642019
right  ...       0.38076691    -466.02799718

left   ...       0.00000000    -465.39124986
centre ...       0.19038345    -465.83642019
right  ...       0.38076691    -466.02799718
new    ...       0.42940030    -466.02881552

 ALPHA AFTER:   0.42940029811030966     
  Cycle:     34 Energy:      -466.028816  Gnorm:      1.121410  CPU:    0.314
  ** Hessian calculated **
 Line minimisation2
 ALPHA BEFORE:    1.0000000000000000     
  ** Opt : line minimisation
left   ...       0.00000000    -466.02881552
centre ...       0.25000000    -466.82201170
right  ...       0.50000000    -467.28310635

left   ...       0.00000000    -466.02881552
centre ...       0.25000000    -466.82201170
right  ...       0.50000000    -467.28310635
new    ...       0.72210368    -467.36653602

 ALPHA AFTER:   0.72210368088048427     
  Cycle:     35 Energy:      -467.366536  Gnorm:      0.856049  CPU:    0.324
  ** Hessian calculated **
 Line minimisation2
 ALPHA BEFORE:    1.0000000000000000     
  ** Opt : line minimisation
left   ...       0.00000000    -467.36653602
centre ...       0.25000000    -467.88795066
right  ...       0.50000000    -468.25326760

left   ...       0.00000000    -467.36653602
centre ...       0.25000000    -467.88795066
right  ...       0.50000000    -468.25326760
new    ...       0.96007739    -468.47236480

 ALPHA AFTER:   0.96007738614460769     
  Cycle:     36 Energy:      -468.472365  Gnorm:      0.372349  CPU:    0.333
 Line minimisation2
 ALPHA BEFORE:    2.6354991227152338     
  ** Opt : line minimisation
left   ...       0.00000000    -468.47236480
centre ...       0.65887478    -468.63478903
right  ...       1.31774956    -468.58850848

left   ...       0.00000000    -468.47236480
centre ...       0.65887478    -468.63478903
right  ...       1.31774956    -468.58850848
new    ...       0.84220585    -468.64143402

left   ...       0.65887478    -468.63478903
centre ...       0.84220585    -468.64143402
right  ...       1.31774956    -468.58850848
new    ...       0.83147215    -468.64147304

 ALPHA AFTER:   0.83147215038468292     
  Cycle:     37 Energy:      -468.641473  Gnorm:      0.268004  CPU:    0.342
 Line minimisation2
 ALPHA BEFORE:   0.55431476692312187     
  ** Opt : line minimisation
left   ...       0.00000000    -468.64147304
centre ...       0.13857869    -468.67653866
right  ...       0.27715738    -468.70730372

left   ...       0.00000000    -468.64147304
centre ...       0.13857869    -468.67653866
right  ...       0.27715738    -468.70730372
new    ...       1.19922296    -468.73557895

left   ...       0.13857869    -468.67653866
centre ...       0.27715738    -468.70730372
right  ...       1.19922296    -468.73557895
new    ...       0.82318261    -468.77262698

left   ...       0.27715738    -468.70730372
centre ...       0.82318261    -468.77262698
right  ...       1.19922296    -468.73557895
new    ...       0.80299538    -468.77235037

 ALPHA AFTER:   0.82318261470675147     
  Cycle:     38 Energy:      -468.772627  Gnorm:      0.236149  CPU:    0.352
 Line minimisation2
 ALPHA BEFORE:    1.8536336836032652     
  ** Opt : line minimisation
left   ...       0.00000000    -468.77262698
centre ...       0.46340842    -468.82814406
right  ...       0.92681684    -468.79690497

left   ...       0.00000000    -468.77262698
centre ...       0.46340842    -468.82814406
right  ...       0.92681684    -468.79690497
new    ...       0.52824891    -468.82920131

left   ...       0.46340842    -468.82814406
centre ...       0.52824891    -468.82920131
right  ...       0.92681684    -468.79690497
new    ...       0.53464292    -468.82917892

 ALPHA AFTER:   0.52824890665428226     
  Cycle:     39 Energy:      -468.829201  Gnorm:      0.229186  CPU:    0.361
 Line minimisation2
 ALPHA BEFORE:   0.48354690700983705     
  ** Opt : line minimisation
left   ...       0.00000000    -468.82920131
centre ...       0.12088673    -468.84930975
right  ...       0.24177345    -468.86703875

left   ...       0.00000000    -468.82920131
centre ...       0.12088673    -468.84930975
right  ...       0.24177345    -468.86703875
new    ...       1.08204904    -468.93370315

left   ...       0.12088673    -468.84930975
centre ...       0.24177345    -468.86703875
right  ...       1.08204904    -468.93370315
new    ...       1.22826056    -468.93204380

 ALPHA AFTER:    1.0820490445713127     
  Cycle:     40 Energy:      -468.933703  Gnorm:      0.257448  CPU:    0.370
 Line minimisation2
 ALPHA BEFORE:   0.72136602971420838     
  ** Opt : line minimisation
left   ...       0.00000000    -468.93370315
centre ...       0.18034151    -468.95678146
right  ...       0.36068301    -468.97645102

left   ...       0.00000000    -468.93370315
centre ...       0.18034151    -468.95678146
right  ...       0.36068301    -468.97645102
new    ...       1.31114144    -469.00748649

left   ...       0.18034151    -468.95678146
centre ...       0.36068301    -468.97645102
right  ...       1.31114144    -469.00748649
new    ...       1.07751454    -469.01335648

 ALPHA AFTER:    1.0775145447574741     
  Cycle:     41 Energy:      -469.013356  Gnorm:      0.543373  CPU:    0.379
 Line minimisation2
 ALPHA BEFORE:   0.75499831103500170     
  ** Opt : line minimisation
left   ...       0.00000000    -469.01335648
centre ...       0.18874958    -469.04957140
right  ...       0.37749916    -469.05946165

left   ...       0.00000000    -469.01335648
centre ...       0.18874958    -469.04957140
right  ...       0.37749916    -469.05946165
new    ...       0.35403805    -469.05990171

 ALPHA AFTER:   0.35403804586703275     
  Cycle:     42 Energy:      -469.059902  Gnorm:      0.584252  CPU:    0.386
 Line minimisation2
 ALPHA BEFORE:   0.23602536391135517     
  ** Opt : line minimisation
left   ...       0.00000000    -469.05990171
centre ...       0.05900634    -469.06718757
right  ...       0.11801268    -469.07360127

left   ...       0.00000000    -469.05990171
centre ...       0.05900634    -469.06718757
right  ...       0.11801268    -469.07360127
new    ...       0.52243038    -469.10058407

left   ...       0.05900634    -469.06718757
centre ...       0.11801268    -469.07360127
right  ...       0.52243038    -469.10058407
new    ...       0.68853277    -469.09859768

 ALPHA AFTER:   0.52243037992352914     
  Cycle:     43 Energy:      -469.100584  Gnorm:      0.493633  CPU:    0.396
 Line minimisation2
 ALPHA BEFORE:   0.34828691994901945     
  ** Opt : line minimisation
left   ...       0.00000000    -469.10058407
centre ...       0.08707173    -469.11228044
right  ...       0.17414346    -469.12170636

left   ...       0.00000000    -469.10058407
centre ...       0.08707173    -469.11228044
right  ...       0.17414346    -469.12170636
new    ...       0.49209041    -469.11976348

 ALPHA AFTER:   0.17414345997450972     
  Cycle:     44 Energy:      -469.121706  Gnorm:      0.441985  CPU:    0.403
 Line minimisation2
 ALPHA BEFORE:   0.18662851496783703     
  ** Opt : line minimisation
left   ...       0.00000000    -469.12170636
centre ...       0.04665713    -469.12503923
right  ...       0.09331426    -469.12764336

left   ...       0.00000000    -469.12170636
centre ...       0.04665713    -469.12503923
right  ...       0.09331426    -469.12764336
new    ...       0.23671211    -469.13310518

left   ...       0.04665713    -469.12503923
centre ...       0.09331426    -469.12764336
right  ...       0.23671211    -469.13310518
new    ...       0.36920716    -469.13150753

 ALPHA AFTER:   0.23671211236927447     
  Cycle:     45 Energy:      -469.133105  Gnorm:      0.412519  CPU:    0.412
  ** Hessian calculated **
 Line minimisation2
 ALPHA BEFORE:    1.0000000000000000     
  ** Opt : line minimisation
left   ...       0.00000000    -469.13310518
centre ...       0.25000000    -469.17769737
right  ...       0.50000000    -469.18468284

left   ...       0.00000000    -469.13310518
centre ...       0.25000000    -469.17769737
right  ...       0.50000000    -469.18468284
new    ...       0.42143763    -469.18670820

 ALPHA AFTER:   0.42143762885473190     
  Cycle:     46 Energy:      -469.186708  Gnorm:      0.188034  CPU:    0.422
 Line minimisation2
 ALPHA BEFORE:   0.77704831584255285     
  ** Opt : line minimisation
left   ...       0.00000000    -469.18670820
centre ...       0.19426208    -469.19492954
right  ...       0.38852416    -469.20041581

left   ...       0.00000000    -469.18670820
centre ...       0.19426208    -469.19492954
right  ...       0.38852416    -469.20041581
new    ...       0.68106272    -469.20402932

left   ...       0.19426208    -469.19492954
centre ...       0.38852416    -469.20041581
right  ...       0.68106272    -469.20402932
new    ...       0.72401126    -469.20400828

 ALPHA AFTER:   0.68106271950403663     
  Cycle:     47 Energy:      -469.204029  Gnorm:      0.126608  CPU:    0.432
 Line minimisation2
 ALPHA BEFORE:   0.85989230093828595     
  ** Opt : line minimisation
left   ...       0.00000000    -469.20402932
centre ...       0.21497308    -469.20879651
right  ...       0.42994615    -469.21263445

left   ...       0.00000000    -469.20402932
centre ...       0.21497308    -469.20879651
right  ...       0.42994615    -469.21263445
new    ...       1.21031970    -469.21544551

left   ...       0.21497308    -469.20879651
centre ...       0.42994615    -469.21263445
right  ...       1.21031970    -469.21544551
new    ...       0.94593025    -469.21625192

 ALPHA AFTER:   0.94593025018640720     
  Cycle:     48 Energy:      -469.216252  Gnorm:      0.136124  CPU:    0.441
 Line minimisation2
 ALPHA BEFORE:   0.74486650957831857     
  ** Opt : line minimisation
left   ...       0.00000000    -469.21625192
centre ...       0.18621663    -469.22084919
right  ...       0.37243325    -469.22413409

left   ...       0.00000000    -469.21625192
centre ...       0.18621663    -469.22084919
right  ...       0.37243325    -469.22413409
new    ...       0.74542762    -469.22828431

left   ...       0.18621663    -469.22084919
centre ...       0.37243325    -469.22413409
right  ...       0.74542762    -469.22828431
new    ...       1.03657830    -469.22875669

 ALPHA AFTER:    1.0365782986332381     
  Cycle:     49 Energy:      -469.228757  Gnorm:      0.103474  CPU:    0.450
 Line minimisation2
 ALPHA BEFORE:    1.1610902116154194     
  ** Opt : line minimisation
left   ...       0.00000000    -469.22875669
centre ...       0.29027255    -469.23378835
right  ...       0.58054511    -469.23783969

left   ...       0.00000000    -469.22875669
centre ...       0.29027255    -469.23378835
right  ...       0.58054511    -469.23783969
new    ...       1.58054511    -469.24082935

left   ...       0.29027255    -469.23378835
centre ...       0.58054511    -469.23783969
right  ...       1.58054511    -469.24082935
new    ...       1.25640666    -469.24154652

 ALPHA AFTER:    1.2564066607167552     
  Cycle:     50 Energy:      -469.241547  Gnorm:      0.123452  CPU:    0.459
 Line minimisation2
 ALPHA BEFORE:   0.83760444047783689     
  ** Opt : line minimisation
left   ...       0.00000000    -469.24154652
centre ...       0.20940111    -469.24627505
right  ...       0.41880222    -469.25016431

left   ...       0.00000000    -469.24154652
centre ...       0.20940111    -469.24627505
right  ...       0.41880222    -469.25016431
new    ...       1.28448100    -469.25703249

left   ...       0.20940111    -469.24627505
centre ...       0.41880222    -469.25016431
right  ...       1.28448100    -469.25703249
new    ...       1.25248953    -469.25705606

 ALPHA AFTER:    1.2524895288899920     
  Cycle:     51 Energy:      -469.257056  Gnorm:      0.106412  CPU:    0.468
 Line minimisation2
 ALPHA BEFORE:    1.3672459726899988     
  ** Opt : line minimisation
left   ...       0.00000000    -469.25705606
centre ...       0.34181149    -469.26388194
right  ...       0.68362299    -469.26729825

left   ...       0.00000000    -469.25705606
centre ...       0.34181149    -469.26388194
right  ...       0.68362299    -469.26729825
new    ...       0.85520603    -469.26794547

 ALPHA AFTER:   0.85520602758658992     
  Cycle:     52 Energy:      -469.267945  Gnorm:      0.107549  CPU:    0.475
 Line minimisation2
 ALPHA BEFORE:    1.1961738335430048     
  ** Opt : line minimisation
left   ...       0.00000000    -469.26794547
centre ...       0.29904346    -469.27334617
right  ...       0.59808692    -469.27668340

left   ...       0.00000000    -469.26794547
centre ...       0.29904346    -469.27334617
right  ...       0.59808692    -469.27668340
new    ...       0.93220630    -469.27836264

 ALPHA AFTER:   0.93220629773857056     
  Cycle:     53 Energy:      -469.278363  Gnorm:      0.090824  CPU:    0.483
 Line minimisation2
 ALPHA BEFORE:    1.1491572542779973     
  ** Opt : line minimisation
left   ...       0.00000000    -469.27836264
centre ...       0.28728931    -469.28182484
right  ...       0.57457863    -469.28422642

left   ...       0.00000000    -469.27836264
centre ...       0.28728931    -469.28182484
right  ...       0.57457863    -469.28422642
new    ...       1.08143971    -469.28584462

left   ...       0.28728931    -469.28182484
centre ...       0.57457863    -469.28422642
right  ...       1.08143971    -469.28584462
new    ...       1.07336369    -469.28584465

 ALPHA AFTER:    1.0733636898475081     
  Cycle:     54 Energy:      -469.285845  Gnorm:      0.102622  CPU:    0.492
 Line minimisation2
 ALPHA BEFORE:   0.95150972647807541     
  ** Opt : line minimisation
left   ...       0.00000000    -469.28584465
centre ...       0.23787743    -469.28862484
right  ...       0.47575486    -469.29035155

left   ...       0.00000000    -469.28584465
centre ...       0.23787743    -469.28862484
right  ...       0.47575486    -469.29035155
new    ...       0.74670995    -469.29183280

left   ...       0.23787743    -469.28862484
centre ...       0.47575486    -469.29035155
right  ...       0.74670995    -469.29183280
new    ...       1.38736060    -469.29148917

 ALPHA AFTER:   0.74670995199650225     
  Cycle:     55 Energy:      -469.291833  Gnorm:      0.063187  CPU:    0.501
  ** Hessian calculated **
 Line minimisation2
 ALPHA BEFORE:    1.0000000000000000     
  ** Opt : line minimisation
left   ...       0.00000000    -469.29183280
centre ...       0.25000000    -469.29311031
right  ...       0.50000000    -469.29371745

left   ...       0.00000000    -469.29183280
centre ...       0.25000000    -469.29311031
right  ...       0.50000000    -469.29371745
new    ...       0.60142569    -469.29378636

 ALPHA AFTER:   0.60142569438998106     
  Cycle:     56 Energy:      -469.293786  Gnorm:      0.051490  CPU:    0.512
 Line minimisation2
 ALPHA BEFORE:   0.57103120548252684     
  ** Opt : line minimisation
left   ...       0.00000000    -469.29378636
centre ...       0.14275780    -469.29438395
right  ...       0.28551560    -469.29490906

left   ...       0.00000000    -469.29378636
centre ...       0.14275780    -469.29438395
right  ...       0.28551560    -469.29490906
new    ...       1.24833675    -469.29673704

left   ...       0.14275780    -469.29438395
centre ...       0.28551560    -469.29490906
right  ...       1.24833675    -469.29673704
new    ...       1.35661638    -469.29671768

 ALPHA AFTER:    1.2483367546653015     
  Cycle:     57 Energy:      -469.296737  Gnorm:      0.060287  CPU:    0.521
 Line minimisation2
 ALPHA BEFORE:   0.83222450311020091     
  ** Opt : line minimisation
left   ...       0.00000000    -469.29673704
centre ...       0.20805613    -469.29773862
right  ...       0.41611225    -469.29841441

left   ...       0.00000000    -469.29673704
centre ...       0.20805613    -469.29773862
right  ...       0.41611225    -469.29841441
new    ...       0.74365500    -469.29888717

left   ...       0.20805613    -469.29773862
centre ...       0.41611225    -469.29841441
right  ...       0.74365500    -469.29888717
new    ...       0.79405543    -469.29906743

 ALPHA AFTER:   0.79405542678448304     
  Cycle:     58 Energy:      -469.299067  Gnorm:      0.044655  CPU:    0.530
 Line minimisation2
 ALPHA BEFORE:    1.4685032392522341     
  ** Opt : line minimisation
left   ...       0.00000000    -469.29906743
centre ...       0.36712581    -469.30009821
right  ...       0.73425162    -469.30079545

left   ...       0.00000000    -469.29906743
centre ...       0.36712581    -469.30009821
right  ...       0.73425162    -469.30079545
new    ...       1.31817015    -469.30118651

 ALPHA AFTER:    1.3181701517786932     
  Cycle:     59 Energy:      -469.301187  Gnorm:      0.061069  CPU:    0.537
 Line minimisation2
 ALPHA BEFORE:   0.87878010118579541     
  ** Opt : line minimisation
left   ...       0.00000000    -469.30118651
centre ...       0.21969503    -469.30193124
right  ...       0.43939005    -469.30227686

left   ...       0.00000000    -469.30118651
centre ...       0.21969503    -469.30193124
right  ...       0.43939005    -469.30227686
new    ...       0.51979120    -469.30241122

 ALPHA AFTER:   0.51979120061619433     
  Cycle:     60 Energy:      -469.302411  Gnorm:      0.034817  CPU:    0.545
 Line minimisation2
 ALPHA BEFORE:   0.47585280643748545     
  ** Opt : line minimisation
left   ...       0.00000000    -469.30241122
centre ...       0.11896320    -469.30278187
right  ...       0.23792640    -469.30312807

left   ...       0.00000000    -469.30241122
centre ...       0.11896320    -469.30278187
right  ...       0.23792640    -469.30312807
new    ...       1.23792640    -469.30379322

left   ...       0.11896320    -469.30278187
centre ...       0.23792640    -469.30312807
right  ...       1.23792640    -469.30379322
new    ...       0.90368990    -469.30397464

 ALPHA AFTER:   0.90368989674855016     
  Cycle:     61 Energy:      -469.303975  Gnorm:      0.041084  CPU:    0.555
 Line minimisation2
 ALPHA BEFORE:    1.0174576013199164     
  ** Opt : line minimisation
left   ...       0.00000000    -469.30397464
centre ...       0.25436440    -469.30438230
right  ...       0.50872880    -469.30476495

left   ...       0.00000000    -469.30397464
centre ...       0.25436440    -469.30438230
right  ...       0.50872880    -469.30476495
new    ...       1.50872880    -469.30450202

left   ...       0.25436440    -469.30438230
centre ...       0.50872880    -469.30476495
right  ...       1.50872880    -469.30450202
new    ...       0.91541715    -469.30513571

left   ...       0.50872880    -469.30476495
centre ...       0.91541715    -469.30513571
right  ...       1.50872880    -469.30450202
new    ...       0.94232307    -469.30513060

 ALPHA AFTER:   0.91541715057341655     
  Cycle:     62 Energy:      -469.305136  Gnorm:      0.044598  CPU:    0.566
 Line minimisation2
 ALPHA BEFORE:    1.4459769398358997     
  ** Opt : line minimisation
left   ...       0.00000000    -469.30513571
centre ...       0.36149423    -469.30576220
right  ...       0.72298847    -469.30620794

left   ...       0.00000000    -469.30513571
centre ...       0.36149423    -469.30576220
right  ...       0.72298847    -469.30620794
new    ...       1.43375861    -469.30665211

left   ...       0.36149423    -469.30576220
centre ...       0.72298847    -469.30620794
right  ...       1.43375861    -469.30665211
new    ...       1.62928815    -469.30666518

 ALPHA AFTER:    1.6292881542381290     
  Cycle:     63 Energy:      -469.306665  Gnorm:      0.041803  CPU:    0.575
 Line minimisation2
 ALPHA BEFORE:    1.3268444428083146     
  ** Opt : line minimisation
left   ...       0.00000000    -469.30666518
centre ...       0.33171111    -469.30723161
right  ...       0.66342222    -469.30749642

left   ...       0.00000000    -469.30666518
centre ...       0.33171111    -469.30723161
right  ...       0.66342222    -469.30749642
new    ...       0.78879564    -469.30745468

 ALPHA AFTER:   0.66342222140415730     
  Cycle:     64 Energy:      -469.307496  Gnorm:      0.029589  CPU:    0.583
 Line minimisation2
 ALPHA BEFORE:   0.44228148093610481     
  ** Opt : line minimisation
left   ...       0.00000000    -469.30749642
centre ...       0.11057037    -469.30756796
right  ...       0.22114074    -469.30779765

left   ...       0.00000000    -469.30749642
centre ...       0.11057037    -469.30756796
right  ...       0.22114074    -469.30779765
new    ...       0.44228148    -469.30820625

left   ...       0.11057037    -469.30756796
centre ...       0.22114074    -469.30779765
right  ...       0.44228148    -469.30820625
new    ...       1.44228148    -469.30919076

left   ...       0.22114074    -469.30779765
centre ...       0.44228148    -469.30820625
right  ...       1.44228148    -469.30919076
new    ...       1.63865764    -469.30905100

 ALPHA AFTER:    1.4422814809361046     
  Cycle:     65 Energy:      -469.309191  Gnorm:      0.038004  CPU:    0.594
  ** Hessian calculated **
 Line minimisation2
 ALPHA BEFORE:    1.0000000000000000     
  ** Opt : line minimisation
left   ...       0.00000000    -469.30919076
centre ...       0.25000000    -469.30964965
right  ...       0.50000000    -469.31028008

left   ...       0.00000000    -469.30919076
centre ...       0.25000000    -469.30964965
right  ...       0.50000000    -469.31028008
new    ...       1.00000000    -469.31151098

left   ...       0.25000000    -469.30964965
centre ...       0.50000000    -469.31028008
right  ...       1.00000000    -469.31151098
new    ...       2.00000000    -469.31361661

left   ...       0.50000000    -469.31028008
centre ...       1.00000000    -469.31151098
right  ...       2.00000000    -469.31361661
new    ...       3.00000000    -469.31618449

left   ...       1.00000000    -469.31151098
centre ...       2.00000000    -469.31361661
right  ...       3.00000000    -469.31618449
new    ...       4.00000000    -469.31870025

left   ...       2.00000000    -469.31361661
centre ...       3.00000000    -469.31618449
right  ...       4.00000000    -469.31870025
new    ...       5.00000000    -469.32094348

 ALPHA AFTER:    5.0000000000000000     
  Cycle:     66 Energy:      -469.320943  Gnorm:      0.041672  CPU:    0.611
 Line minimisation2
 ALPHA BEFORE:    3.3333333333333335     
  ** Opt : line minimisation
left   ...       0.00000000    -469.32094348
centre ...       0.83333333    -469.32376201
right  ...       1.66666667    -469.32664069

left   ...       0.00000000    -469.32094348
centre ...       0.83333333    -469.32376201
right  ...       1.66666667    -469.32664069
new    ...       2.66666667    -469.32959832

left   ...       0.83333333    -469.32376201
centre ...       1.66666667    -469.32664069
right  ...       2.66666667    -469.32959832
new    ...       3.66666667    -469.33266737

left   ...       1.66666667    -469.32664069
centre ...       2.66666667    -469.32959832
right  ...       3.66666667    -469.33266737
new    ...       4.66666667    -469.33518221

 ALPHA AFTER:    4.6666666666666670     
  Cycle:     67 Energy:      -469.335182  Gnorm:      0.049367  CPU:    0.622
 Line minimisation2
 ALPHA BEFORE:    3.1111111111111112     
  ** Opt : line minimisation
left   ...       0.00000000    -469.33518221
centre ...       0.77777778    -469.33901809
right  ...       1.55555556    -469.34318821

left   ...       0.00000000    -469.33518221
centre ...       0.77777778    -469.33901809
right  ...       1.55555556    -469.34318821
new    ...       2.55555556    -469.34705575

left   ...       0.77777778    -469.33901809
centre ...       1.55555556    -469.34318821
right  ...       2.55555556    -469.34705575
new    ...       3.55555556    -469.35101007

left   ...       1.55555556    -469.34318821
centre ...       2.55555556    -469.34705575
right  ...       3.55555556    -469.35101007
new    ...       4.55555556    -469.35388305

 ALPHA AFTER:    4.5555555555555554     
  Cycle:     68 Energy:      -469.353883  Gnorm:      0.052199  CPU:    0.633
 Line minimisation2
 ALPHA BEFORE:    3.0370370370370372     
  ** Opt : line minimisation
left   ...       0.00000000    -469.35388305
centre ...       0.75925926    -469.35802666
right  ...       1.51851852    -469.36106188

left   ...       0.00000000    -469.35388305
centre ...       0.75925926    -469.35802666
right  ...       1.51851852    -469.36106188
new    ...       2.51851852    -469.36493067

left   ...       0.75925926    -469.35802666
centre ...       1.51851852    -469.36106188
right  ...       2.51851852    -469.36493067
new    ...       3.51851852    -469.36624309

 ALPHA AFTER:    3.5185185185185186     
  Cycle:     69 Energy:      -469.366243  Gnorm:      0.079813  CPU:    0.642
 Line minimisation2
 ALPHA BEFORE:    2.8682408661982364     
  ** Opt : line minimisation
left   ...       0.00000000    -469.36624309
centre ...       0.71706022    -469.37272098
right  ...       1.43412043    -469.37771092

left   ...       0.00000000    -469.36624309
centre ...       0.71706022    -469.37272098
right  ...       1.43412043    -469.37771092
new    ...       2.43412043    -469.37904850

 ALPHA AFTER:    2.4341204330991184     
  Cycle:     70 Energy:      -469.379049  Gnorm:      0.065570  CPU:    0.650
 Line minimisation2
 ALPHA BEFORE:    1.6227469553994123     
  ** Opt : line minimisation
left   ...       0.00000000    -469.37904850
centre ...       0.40568674    -469.38163781
right  ...       0.81137348    -469.38341762

left   ...       0.00000000    -469.37904850
centre ...       0.40568674    -469.38163781
right  ...       0.81137348    -469.38341762
new    ...       1.50048458    -469.38213841

left   ...       0.40568674    -469.38163781
centre ...       0.81137348    -469.38341762
right  ...       1.50048458    -469.38213841
new    ...       0.99317566    -469.38390386

left   ...       0.81137348    -469.38341762
centre ...       0.99317566    -469.38390386
right  ...       1.50048458    -469.38213841
new    ...       1.05200578    -469.38397972

 ALPHA AFTER:    1.0520057756347365     
  Cycle:     71 Energy:      -469.383980  Gnorm:      0.087613  CPU:    0.660
 Line minimisation2
 ALPHA BEFORE:   0.99279658029154749     
  ** Opt : line minimisation
left   ...       0.00000000    -469.38397972
centre ...       0.24819915    -469.38760944
right  ...       0.49639829    -469.38684392

left   ...       0.00000000    -469.38397972
centre ...       0.24819915    -469.38760944
right  ...       0.49639829    -469.38684392
new    ...       0.32906985    -469.38798281

left   ...       0.24819915    -469.38760944
centre ...       0.32906985    -469.38798281
right  ...       0.49639829    -469.38684392
new    ...       0.33879165    -469.38799445

 ALPHA AFTER:   0.33879165306781744     
  Cycle:     72 Energy:      -469.387994  Gnorm:      0.061724  CPU:    0.669
 Line minimisation2
 ALPHA BEFORE:   0.62398474479622368     
  ** Opt : line minimisation
left   ...       0.00000000    -469.38799445
centre ...       0.15599619    -469.38933794
right  ...       0.31199237    -469.38997584

left   ...       0.00000000    -469.38799445
centre ...       0.15599619    -469.38933794
right  ...       0.31199237    -469.38997584
new    ...       0.37502601    -469.39047533

left   ...       0.15599619    -469.38933794
centre ...       0.31199237    -469.38997584
right  ...       0.37502601    -469.39047533
new    ...       0.50109329    -469.39096610

 ALPHA AFTER:   0.50109328605329728     
  Cycle:     73 Energy:      -469.390966  Gnorm:      0.055624  CPU:    0.679
 Line minimisation2
 ALPHA BEFORE:   0.37521365684579006     
  ** Opt : line minimisation
left   ...       0.00000000    -469.39096610
centre ...       0.09380341    -469.39179236
right  ...       0.18760683    -469.39261630

left   ...       0.00000000    -469.39096610
centre ...       0.09380341    -469.39179236
right  ...       0.18760683    -469.39261630
new    ...       1.18760683    -469.39030652

left   ...       0.09380341    -469.39179236
centre ...       0.18760683    -469.39261630
right  ...       1.18760683    -469.39030652
new    ...       0.57373644    -469.39429490

left   ...       0.18760683    -469.39261630
centre ...       0.57373644    -469.39429490
right  ...       1.18760683    -469.39030652
new    ...       0.58110949    -469.39429473

 ALPHA AFTER:   0.57373644143561786     
  Cycle:     74 Energy:      -469.394295  Gnorm:      0.049460  CPU:    0.689
 Line minimisation2
 ALPHA BEFORE:   0.60591969518939337     
  ** Opt : line minimisation
left   ...       0.00000000    -469.39429490
centre ...       0.15147992    -469.39492047
right  ...       0.30295985    -469.39509442

left   ...       0.00000000    -469.39429490
centre ...       0.15147992    -469.39492047
right  ...       0.30295985    -469.39509442
new    ...       0.28556697    -469.39505658

 ALPHA AFTER:   0.30295984759469669     
  Cycle:     75 Energy:      -469.395094  Gnorm:      0.042578  CPU:    0.697
  ** Hessian calculated **
 Line minimisation2
 ALPHA BEFORE:    1.0000000000000000     
  ** Opt : line minimisation
left   ...       0.00000000    -469.39509442
centre ...       0.25000000    -469.39688569
right  ...       0.50000000    -469.39746788

left   ...       0.00000000    -469.39509442
centre ...       0.25000000    -469.39688569
right  ...       0.50000000    -469.39746788
new    ...       0.49538160    -469.39745490

 ALPHA AFTER:   0.50000000000000000     
  Cycle:     76 Energy:      -469.397468  Gnorm:      0.024395  CPU:    0.707
 Line minimisation2
 ALPHA BEFORE:   0.51135813611860215     
  ** Opt : line minimisation
left   ...       0.00000000    -469.39746788
centre ...       0.12783953    -469.39793642
right  ...       0.25567907    -469.39830246

left   ...       0.00000000    -469.39746788
centre ...       0.12783953    -469.39793642
right  ...       0.25567907    -469.39830246
new    ...       0.64825162    -469.39868331

left   ...       0.12783953    -469.39793642
centre ...       0.25567907    -469.39830246
right  ...       0.64825162    -469.39868331
new    ...       0.58531072    -469.39867192

 ALPHA AFTER:   0.64825161977571011     
  Cycle:     77 Energy:      -469.398683  Gnorm:      0.017814  CPU:    0.716
 Line minimisation2
 ALPHA BEFORE:    2.8574837537589719     
  ** Opt : line minimisation
left   ...       0.00000000    -469.39868331
centre ...       0.71437094    -469.40085611
right  ...       1.42874188    -469.40093036

left   ...       0.00000000    -469.39868331
centre ...       0.71437094    -469.40085611
right  ...       1.42874188    -469.40093036
new    ...       1.09683106    -469.40095324

 ALPHA AFTER:    1.0968310610884975     
  Cycle:     78 Energy:      -469.400953  Gnorm:      0.007980  CPU:    0.724
 Line minimisation2
 ALPHA BEFORE:   0.73122070739233158     
  ** Opt : line minimisation
left   ...       0.00000000    -469.40095324
centre ...       0.18280518    -469.40115386
right  ...       0.36561035    -469.40103641

left   ...       0.00000000    -469.40095324
centre ...       0.18280518    -469.40115386
right  ...       0.36561035    -469.40103641
new    ...       0.20670560    -469.40098674

left   ...       0.00000000    -469.40095324
centre ...       0.18280518    -469.40115386
right  ...       0.20670560    -469.40098674
new    ...       0.10542363    -469.40099105

 ALPHA AFTER:   0.18280517684808290     
  Cycle:     79 Energy:      -469.401154  Gnorm:      0.007992  CPU:    0.733
 Line minimisation2
 ALPHA BEFORE:   0.12187011789872193     
  ** Opt : line minimisation
left   ...       0.00000000    -469.40115386
centre ...       0.03046753    -469.40099482
right  ...      -0.03046753    -469.40117624

left   ...      -0.03046753    -469.40117624
centre ...       0.00000000    -469.40115386
right  ...       0.03046753    -469.40099482
new    ...      -0.02022345    -469.40118167

 ALPHA AFTER:    2.0223447239784392E-002
  Cycle:     80 Energy:      -469.401182  Gnorm:      0.008011  CPU:    0.740
 Line minimisation2
 ALPHA BEFORE:    1.3482298159856260E-002
  ** Opt : line minimisation
left   ...       0.00000000    -469.40118167
centre ...       0.00337057    -469.40118437
right  ...       0.00674115    -469.40116784

left   ...       0.00000000    -469.40118167
centre ...       0.00337057    -469.40118437
right  ...       0.00674115    -469.40116784
new    ...       0.00215858    -469.40118340

left   ...       0.00215858    -469.40118340
centre ...       0.00337057    -469.40118437
right  ...       0.00674115    -469.40116784
new    ...       0.00308613    -469.40118414

 ALPHA AFTER:    3.3705745399640651E-003
  Cycle:     81 Energy:      -469.401184  Gnorm:      0.008004  CPU:    0.750
 Line minimisation2
 ALPHA BEFORE:    2.2470496933093770E-003
  ** Opt : line minimisation
left   ...       0.00000000    -469.40118437
centre ...       0.00056176    -469.40118505
right  ...       0.00112352    -469.40118573

left   ...       0.00000000    -469.40118437
centre ...       0.00056176    -469.40118505
right  ...       0.00112352    -469.40118573
new    ...       1.00112352    -469.40173944

left   ...       0.00056176    -469.40118505
centre ...       0.00112352    -469.40118573
right  ...       1.00112352    -469.40173944
new    ...       0.92034787    -469.40144941

left   ...       0.00112352    -469.40118573
centre ...       0.92034787    -469.40144941
right  ...       1.00112352    -469.40173944
new    ...       1.16267483    -469.40194791

left   ...       0.92034787    -469.40144941
centre ...       1.00112352    -469.40173944
right  ...       1.16267483    -469.40194791
new    ...       1.14987133    -469.40193290

 ALPHA AFTER:    1.1626748251781398     
  Cycle:     82 Energy:      -469.401948  Gnorm:      0.029359  CPU:    0.763
 Line minimisation2
 ALPHA BEFORE:   0.77511655011875980     
  ** Opt : line minimisation
left   ...       0.00000000    -469.40194791
centre ...       0.19377914    -469.40224786
right  ...       0.38755828    -469.40249171

left   ...       0.00000000    -469.40194791
centre ...       0.19377914    -469.40224786
right  ...       0.38755828    -469.40249171
new    ...       1.13313529    -469.39307689

left   ...       0.19377914    -469.40224786
centre ...       0.38755828    -469.40249171
right  ...       1.13313529    -469.39307689
new    ...       0.33323360    -469.40221977

left   ...       0.33323360    -469.40221977
centre ...       0.38755828    -469.40249171
right  ...       1.13313529    -469.39307689
new    ...       0.47393481    -469.40243122

left   ...       0.33323360    -469.40221977
centre ...       0.38755828    -469.40249171
right  ...       0.47393481    -469.40243122
new    ...       0.42211165    -469.40259032

left   ...       0.38755828    -469.40249171
centre ...       0.42211165    -469.40259032
right  ...       0.47393481    -469.40243122
new    ...       0.42564058    -469.40258125

 ALPHA AFTER:   0.42211164603694801     
  Cycle:     83 Energy:      -469.402590  Gnorm:      0.065561  CPU:    0.777
 Line minimisation2
 ALPHA BEFORE:    3.2418760337783588     
  ** Opt : line minimisation
left   ...       0.00000000    -469.40259032
centre ...       0.81046901    -469.40290106
right  ...       1.62093802    -469.40279136

left   ...       0.00000000    -469.40259032
centre ...       0.81046901    -469.40290106
right  ...       1.62093802    -469.40279136
new    ...       1.00423333    -469.40298882

left   ...       0.81046901    -469.40290106
centre ...       1.00423333    -469.40298882
right  ...       1.62093802    -469.40279136
new    ...       1.14475843    -469.40288077

left   ...       0.81046901    -469.40290106
centre ...       1.00423333    -469.40298882
right  ...       1.14475843    -469.40288077
new    ...       0.96931123    -469.40297491

left   ...       0.96931123    -469.40297491
centre ...       1.00423333    -469.40298882
right  ...       1.14475843    -469.40288077
new    ...       1.01671036    -469.40299359

 ALPHA AFTER:    1.0167103649634814     
  Cycle:     84 Energy:      -469.402994  Gnorm:      0.054063  CPU:    0.790
 Line minimisation2
 ALPHA BEFORE:    1.2820673480533109     
  ** Opt : line minimisation
left   ...       0.00000000    -469.40299359
centre ...       0.32051684    -469.40351326
right  ...       0.64103367    -469.40379556

left   ...       0.00000000    -469.40299359
centre ...       0.32051684    -469.40351326
right  ...       0.64103367    -469.40379556
new    ...       0.86197732    -469.40409742

left   ...       0.32051684    -469.40351326
centre ...       0.64103367    -469.40379556
right  ...       0.86197732    -469.40409742
new    ...       1.30386462    -469.40466996

left   ...       0.64103367    -469.40379556
centre ...       0.86197732    -469.40409742
right  ...       1.30386462    -469.40466996
new    ...       2.30386462    -469.40563508

left   ...       0.86197732    -469.40409742
centre ...       1.30386462    -469.40466996
right  ...       2.30386462    -469.40563508
new    ...       3.30386462    -469.40697172

left   ...       1.30386462    -469.40466996
centre ...       2.30386462    -469.40563508
right  ...       3.30386462    -469.40697172
new    ...       4.30386462    -469.40812565

left   ...       2.30386462    -469.40563508
centre ...       3.30386462    -469.40697172
right  ...       4.30386462    -469.40812565
new    ...       5.30386462    -469.40878386

 ALPHA AFTER:    5.3038646152555531     
  Cycle:     85 Energy:      -469.408784  Gnorm:      0.100145  CPU:    0.806
  ** Hessian calculated **
 Line minimisation2
 ALPHA BEFORE:    1.0000000000000000     
  ** Opt : line minimisation
left   ...       0.00000000    -469.40878386
centre ...       0.25000000    -469.41263185
right  ...       0.50000000    -469.41277199

left   ...       0.00000000    -469.40878386
centre ...       0.25000000    -469.41263185
right  ...       0.50000000    -469.41277199
new    ...       0.38444868    -469.41317121

 ALPHA AFTER:   0.38444867574678004     
  Cycle:     86 Energy:      -469.413171  Gnorm:      0.050232  CPU:    0.817
 Line minimisation2
 ALPHA BEFORE:   0.75794919493603763     
  ** Opt : line minimisation
left   ...       0.00000000    -469.41317121
centre ...       0.18948730    -469.41380422
right  ...       0.37897460    -469.41439662

left   ...       0.00000000    -469.41317121
centre ...       0.18948730    -469.41380422
right  ...       0.37897460    -469.41439662
new    ...       1.37897460    -469.41513841

left   ...       0.18948730    -469.41380422
centre ...       0.37897460    -469.41439662
right  ...       1.37897460    -469.41513841
new    ...       1.06399039    -469.41554822

 ALPHA AFTER:    1.0639903864209626     
  Cycle:     87 Energy:      -469.415548  Gnorm:      0.053715  CPU:    0.826
 Line minimisation2
 ALPHA BEFORE:   0.99946955825488293     
  ** Opt : line minimisation
left   ...       0.00000000    -469.41554822
centre ...       0.24986739    -469.41633500
right  ...       0.49973478    -469.41700171

left   ...       0.00000000    -469.41554822
centre ...       0.24986739    -469.41633500
right  ...       0.49973478    -469.41700171
new    ...       1.49973478    -469.41567658

left   ...       0.24986739    -469.41633500
centre ...       0.49973478    -469.41700171
right  ...       1.49973478    -469.41567658
new    ...       0.79236164    -469.41704605

left   ...       0.49973478    -469.41700171
centre ...       0.79236164    -469.41704605
right  ...       1.49973478    -469.41567658
new    ...       0.68233968    -469.41701839

 ALPHA AFTER:   0.79236164256988273     
  Cycle:     88 Energy:      -469.417046  Gnorm:      0.036311  CPU:    0.837
 Line minimisation2
 ALPHA BEFORE:   0.83850351778723398     
  ** Opt : line minimisation
left   ...       0.00000000    -469.41704605
centre ...       0.20962588    -469.41743893
right  ...       0.41925176    -469.41753804

left   ...       0.00000000    -469.41704605
centre ...       0.20962588    -469.41743893
right  ...       0.41925176    -469.41753804
new    ...       0.38515917    -469.41750283

 ALPHA AFTER:   0.41925175889361699     
  Cycle:     89 Energy:      -469.417538  Gnorm:      0.024648  CPU:    0.844
 Line minimisation2
 ALPHA BEFORE:   0.30446402683745305     
  ** Opt : line minimisation
left   ...       0.00000000    -469.41753804
centre ...       0.07611601    -469.41770113
right  ...       0.15223201    -469.41785513

left   ...       0.00000000    -469.41753804
centre ...       0.07611601    -469.41770113
right  ...       0.15223201    -469.41785513
new    ...       1.15223201    -469.41905231

left   ...       0.07611601    -469.41770113
centre ...       0.15223201    -469.41785513
right  ...       1.15223201    -469.41905231
new    ...       1.43213455    -469.41910076

 ALPHA AFTER:    1.4321345478450991     
  Cycle:     90 Energy:      -469.419101  Gnorm:      0.042439  CPU:    0.854
 Line minimisation2
 ALPHA BEFORE:    1.0241373059540824     
  ** Opt : line minimisation
left   ...       0.00000000    -469.41910076
centre ...       0.25603433    -469.41977700
right  ...       0.51206865    -469.42046264

left   ...       0.00000000    -469.41910076
centre ...       0.25603433    -469.41977700
right  ...       0.51206865    -469.42046264
new    ...       1.02413731    -469.42096736

left   ...       0.25603433    -469.41977700
centre ...       0.51206865    -469.42046264
right  ...       1.02413731    -469.42096736
new    ...       0.99179093    -469.42095387

 ALPHA AFTER:    1.0241373059540826     
  Cycle:     91 Energy:      -469.420967  Gnorm:      0.054379  CPU:    0.863
 Line minimisation2
 ALPHA BEFORE:   0.68275820396938836     
  ** Opt : line minimisation
left   ...       0.00000000    -469.42096736
centre ...       0.17068955    -469.42158008
right  ...       0.34137910    -469.42218924

left   ...       0.00000000    -469.42096736
centre ...       0.17068955    -469.42158008
right  ...       0.34137910    -469.42218924
new    ...       1.34137910    -469.42461184

left   ...       0.17068955    -469.42158008
centre ...       0.34137910    -469.42218924
right  ...       1.34137910    -469.42461184
new    ...       2.07853108    -469.42579658

left   ...       0.34137910    -469.42218924
centre ...       1.34137910    -469.42461184
right  ...       2.07853108    -469.42579658
new    ...       3.07853108    -469.42658474

 ALPHA AFTER:    3.0785310846347609     
  Cycle:     92 Energy:      -469.426585  Gnorm:      0.095955  CPU:    0.874
 Line minimisation2
 ALPHA BEFORE:    2.0523540564231739     
  ** Opt : line minimisation
left   ...       0.00000000    -469.42658474
centre ...       0.51308851    -469.42979753
right  ...       1.02617703    -469.43224931

left   ...       0.00000000    -469.42658474
centre ...       0.51308851    -469.42979753
right  ...       1.02617703    -469.43224931
new    ...       2.02617703    -469.43308649

 ALPHA AFTER:    2.0261770282115870     
  Cycle:     93 Energy:      -469.433086  Gnorm:      0.130021  CPU:    0.882
 Line minimisation2
 ALPHA BEFORE:    2.3049882532384833     
  ** Opt : line minimisation
left   ...       0.00000000    -469.43308649
centre ...       0.57624706    -469.43965761
right  ...       1.15249413    -469.44164572

left   ...       0.00000000    -469.43308649
centre ...       0.57624706    -469.43965761
right  ...       1.15249413    -469.44164572
new    ...       1.11434576    -469.44162509

 ALPHA AFTER:    1.1524941266192417     
  Cycle:     94 Energy:      -469.441646  Gnorm:      0.103938  CPU:    0.889
 Line minimisation2
 ALPHA BEFORE:   0.76832941774616115     
  ** Opt : line minimisation
left   ...       0.00000000    -469.44164572
centre ...       0.19208235    -469.44301920
right  ...       0.38416471    -469.44410500

left   ...       0.00000000    -469.44164572
centre ...       0.19208235    -469.44301920
right  ...       0.38416471    -469.44410500
new    ...       1.01313141    -469.44564031

left   ...       0.19208235    -469.44301920
centre ...       0.38416471    -469.44410500
right  ...       1.01313141    -469.44564031
new    ...       1.01064880    -469.44565991

 ALPHA AFTER:    1.0106488029193452     
  Cycle:     95 Energy:      -469.445660  Gnorm:      0.091278  CPU:    0.898
  ** Hessian calculated **
 Line minimisation2
 ALPHA BEFORE:    1.0000000000000000     
  ** Opt : line minimisation
left   ...       0.00000000    -469.44565991
centre ...       0.25000000    -469.45093761
right  ...       0.50000000    -469.45568724

left   ...       0.00000000    -469.44565991
centre ...       0.25000000    -469.45093761
right  ...       0.50000000    -469.45568724
new    ...       1.50000000    -469.46929270

left   ...       0.25000000    -469.45093761
centre ...       0.50000000    -469.45568724
right  ...       1.50000000    -469.46929270
new    ...       2.50000000    -469.47361541

 ALPHA AFTER:    2.5000000000000000     
  Cycle:     96 Energy:      -469.473615  Gnorm:      0.091160  CPU:    0.910
 Line minimisation2
 ALPHA BEFORE:    2.3738986333706467     
  ** Opt : line minimisation
left   ...       0.00000000    -469.47361541
centre ...       0.59347466    -469.47877129
right  ...       1.18694932    -469.47207322

left   ...       0.00000000    -469.47361541
centre ...       0.59347466    -469.47877129
right  ...       1.18694932    -469.47207322
new    ...       0.55486933    -469.47876920

left   ...       0.55486933    -469.47876920
centre ...       0.59347466    -469.47877129
right  ...       1.18694932    -469.47207322
new    ...       0.57568223    -469.47877655

 ALPHA AFTER:   0.57568223172024813     
  Cycle:     97 Energy:      -469.478777  Gnorm:      0.044463  CPU:    0.920
 Line minimisation2
 ALPHA BEFORE:    1.8636275487505147     
  ** Opt : line minimisation
left   ...       0.00000000    -469.47877655
centre ...       0.46590689    -469.48056301
right  ...       0.93181377    -469.48044397

left   ...       0.00000000    -469.47877655
centre ...       0.46590689    -469.48056301
right  ...       0.93181377    -469.48044397
new    ...       0.66975368    -469.48057945

 ALPHA AFTER:   0.66975368283724568     
  Cycle:     98 Energy:      -469.480579  Gnorm:      0.013382  CPU:    0.927
 Line minimisation2
 ALPHA BEFORE:   0.87416844272349015     
  ** Opt : line minimisation
left   ...       0.00000000    -469.48057945
centre ...       0.21854211    -469.48071878
right  ...       0.43708422    -469.48081880

left   ...       0.00000000    -469.48057945
centre ...       0.21854211    -469.48071878
right  ...       0.43708422    -469.48081880
new    ...       0.88396110    -469.48076571

left   ...       0.21854211    -469.48071878
centre ...       0.43708422    -469.48081880
right  ...       0.88396110    -469.48076571
new    ...       0.59195699    -469.48070461

left   ...       0.21854211    -469.48071878
centre ...       0.43708422    -469.48081880
right  ...       0.59195699    -469.48070461
new    ...       0.39932343    -469.48080100

left   ...       0.39932343    -469.48080100
centre ...       0.43708422    -469.48081880
right  ...       0.59195699    -469.48070461
new    ...       0.45577000    -469.48082717

 ALPHA AFTER:   0.45576999743286389     
  Cycle:     99 Energy:      -469.480827  Gnorm:      0.006916  CPU:    0.940
 Line minimisation2
 ALPHA BEFORE:   0.57053921020252663     
  ** Opt : line minimisation
left   ...       0.00000000    -469.48082717
centre ...       0.14263480    -469.48069056
right  ...      -0.14263480    -469.48080226

left   ...      -0.14263480    -469.48080226
centre ...       0.00000000    -469.48082717
right  ...       0.14263480    -469.48069056
new    ...      -0.04931622    -469.48081257

left   ...      -0.04931622    -469.48081257
centre ...       0.00000000    -469.48082717
right  ...       0.14263480    -469.48069056
new    ...      -0.00198924    -469.48082660

left   ...      -0.00198924    -469.48082660
centre ...       0.00000000    -469.48082717
right  ...       0.14263480    -469.48069056
new    ...       0.01578640    -469.48083170

left   ...       0.00000000    -469.48082717
centre ...       0.01578640    -469.48083170
right  ...       0.14263480    -469.48069056
new    ...       0.02251262    -469.48083361

left   ...       0.01578640    -469.48083170
centre ...       0.02251262    -469.48083361
right  ...       0.14263480    -469.48069056
new    ...       0.03135189    -469.48083610

left   ...       0.02251262    -469.48083361
centre ...       0.03135189    -469.48083610
right  ...       0.14263480    -469.48069056
new    ...       0.03756967    -469.48066284

 ALPHA AFTER:    3.1351886552931724E-002
  Cycle:    100 Energy:      -469.480836  Gnorm:      0.006746  CPU:    0.957
 Line minimisation2
 ALPHA BEFORE:    3.0510362676375410E-002
  ** Opt : line minimisation
left   ...       0.00000000    -469.48083610
centre ...       0.00762759    -469.48066318
right  ...      -0.00762759    -469.48083401

left   ...      -0.00762759    -469.48083401
centre ...       0.00000000    -469.48083610
right  ...       0.00762759    -469.48066318
new    ...      -0.00372257    -469.48083508

left   ...      -0.00372257    -469.48083508
centre ...       0.00000000    -469.48083610
right  ...       0.00762759    -469.48066318
new    ...      -0.00179353    -469.48083561

left   ...      -0.00179353    -469.48083561
centre ...       0.00000000    -469.48083610
right  ...       0.00762759    -469.48066318
new    ...      -0.00084058    -469.48083587

 ALPHA AFTER:   -8.4057916513077878E-004
  Cycle:    101 Energy:      -469.480836  Gnorm:      0.006746  CPU:    0.967
  ** Hessian calculated **
 Line minimisation2
 ALPHA BEFORE:    1.0000000000000000     
  ** Opt : line minimisation
left   ...       0.00000000    -469.48083610
centre ...       0.25000000    -469.48071936
right  ...      -0.25000000    -469.48077831

left   ...      -0.25000000    -469.48077831
centre ...       0.00000000    -469.48083610
right  ...       0.25000000    -469.48071936
new    ...      -0.04222304    -469.48082442

left   ...      -0.04222304    -469.48082442
centre ...       0.00000000    -469.48083610
right  ...       0.25000000    -469.48071936
new    ...       0.03323639    -469.48066993

left   ...      -0.04222304    -469.48082442
centre ...       0.00000000    -469.48083610
right  ...       0.03323639    -469.48066993
new    ...      -0.01913381    -469.48083087

left   ...      -0.01913381    -469.48083087
centre ...       0.00000000    -469.48083610
right  ...       0.03323639    -469.48066993
new    ...      -0.00821080    -469.48083387

left   ...      -0.00821080    -469.48083387
centre ...       0.00000000    -469.48083610
right  ...       0.03323639    -469.48066993
new    ...      -0.00303831    -469.48083528

left   ...      -0.00303831    -469.48083528
centre ...       0.00000000    -469.48083610
right  ...       0.03323639    -469.48066993
new    ...      -0.00058779    -469.48083594

 ALPHA AFTER:   -5.8779477351790987E-004
  Cycle:    102 Energy:      -469.480836  Gnorm:      0.006746  CPU:    0.987
  ** Hessian calculated **
 Line minimisation2
 ALPHA BEFORE:    1.0000000000000000     
  ** Opt : line minimisation
left   ...       0.00000000    -469.48083610
centre ...       0.25000000    -469.48071936
right  ...      -0.25000000    -469.48077831

left   ...      -0.25000000    -469.48077831
centre ...       0.00000000    -469.48083610
right  ...       0.25000000    -469.48071936
new    ...      -0.04222304    -469.48082442

left   ...      -0.04222304    -469.48082442
centre ...       0.00000000    -469.48083610
right  ...       0.25000000    -469.48071936
new    ...       0.03323639    -469.48066993

left   ...      -0.04222304    -469.48082442
centre ...       0.00000000    -469.48083610
right  ...       0.03323639    -469.48066993
new    ...      -0.01913381    -469.48083087

left   ...      -0.01913381    -469.48083087
centre ...       0.00000000    -469.48083610
right  ...       0.03323639    -469.48066993
new    ...      -0.00821080    -469.48083387

left   ...      -0.00821080    -469.48083387
centre ...       0.00000000    -469.48083610
right  ...       0.03323639    -469.48066993
new    ...      -0.00303831    -469.48083528

left   ...      -0.00303831    -469.48083528
centre ...       0.00000000    -469.48083610
right  ...       0.03323639    -469.48066993
new    ...      -0.00058779    -469.48083594

 ALPHA AFTER:   -5.8779477351790987E-004


  **** Conditions for a minimum have not been satisfied. However ****
  **** no lower point can be found - treat results with caution  ****
  **** unless gradient norm is small (less than 0.1)             ****


  Final energy =    -469.48083610 eV
  Final Gnorm  =       0.00674589

  Components of energy : 

--------------------------------------------------------------------------------
  Interatomic potentials     =          75.12991676 eV    
  Monopole - monopole (real) =        -284.29593050 eV    
  Monopole - monopole (recip)=        -260.31482235 eV    
  Monopole - monopole (total)=        -544.61075285 eV    
--------------------------------------------------------------------------------
  Total lattice energy       =        -469.48083610 eV    
--------------------------------------------------------------------------------
  Total lattice energy       =          -45297.7240 kJ/(mole unit cells)
--------------------------------------------------------------------------------

  Final fractional coordinates of atoms :

--------------------------------------------------------------------------------
   No.  Atomic        x           y          z          Radius
        Label       (Frac)      (Frac)     (Frac)       (Angs) 
--------------------------------------------------------------------------------
     1  O     c     0.500000    0.250000    0.600000    0.000000
     2  O     c     0.487222    0.773721    0.772488    0.000000
     3  O     c     0.925080    0.498041    0.045345    0.000000
     4  O     c     0.134805    0.104512    0.840840    0.000000
     5  O     c     0.128009    0.158591    0.221918    0.000000
     6  O     c     0.412267    0.387249    0.179860    0.000000
     7  O     c     0.205443    0.918948    0.463777    0.000000
     8  O     c     0.527765    0.888662    0.251676    0.000000
     9  O     c     0.030312    0.684790    0.652588    0.000000
    10  Sr    c     0.696697    0.507191    0.537315    0.000000
    11  Sr    c     0.816767    0.869648    0.099745    0.000000
    12  Sr    c     0.501497    0.503732    0.941215    0.000000
    13  Ti    c     0.198437    0.859721    0.674358    0.000000
    14  Ti    c     0.135746    0.303742    0.073308    0.000000
    15  Ti    c     0.362133    0.050543    0.396761    0.000000
--------------------------------------------------------------------------------

  Final Cartesian lattice vectors (Angstroms) :

        6.281437    0.442056   -0.751771
        0.884113    7.017032   -1.201474
       -1.879427   -1.501842    7.169740


  Final cell parameters and derivatives :

--------------------------------------------------------------------------------
       a            6.341689 Angstrom     dE/de1(xx)     0.073758 eV/strain
       b            7.173837 Angstrom     dE/de2(yy)     0.081414 eV/strain
       c            7.562602 Angstrom     dE/de3(zz)     0.151522 eV/strain
       alpha      112.560231 Degrees      dE/de4(yz)     0.000399 eV/strain
       beta       111.862701 Degrees      dE/de5(xz)     0.048705 eV/strain
       gamma       77.871379 Degrees      dE/de6(xy)     0.049548 eV/strain
--------------------------------------------------------------------------------

  Primitive cell volume =           293.966486 Angs**3

  Density of cell =      3.109679 g/cm**3

  Non-primitive cell volume =           293.966486 Angs**3


  Final internal derivatives :

--------------------------------------------------------------------------------
   No.  Atomic          a             b             c           Radius
        Label          (eV)          (eV)          (eV)        (eV/Angs)
--------------------------------------------------------------------------------
      1 O     c       0.000000      0.000000      0.000000      0.000000
      2 O     c      -0.008214      0.047837     -0.016389      0.000000
      3 O     c      -0.023902      0.075769     -0.014505      0.000000
      4 O     c       0.002465     -0.076823     -0.083720      0.000000
      5 O     c      -0.050342      0.037374     -0.014592      0.000000
      6 O     c       0.031182      0.017925      0.001501      0.000000
      7 O     c      -0.034210     -0.030344     -0.034632      0.000000
      8 O     c      -0.015841     -0.025911     -0.063770      0.000000
      9 O     c      -0.038763     -0.054150      0.062782      0.000000
     10 Sr    c      -0.019015     -0.014844      0.017822      0.000000
     11 Sr    c       0.006264     -0.000814     -0.002078      0.000000
     12 Sr    c      -0.008230      0.001395      0.008618      0.000000
     13 Ti    c       0.064457      0.024375      0.001758      0.000000
     14 Ti    c      -0.022701      0.002073     -0.038209      0.000000
     15 Ti    c       0.056885     -0.098148      0.012069      0.000000
--------------------------------------------------------------------------------
  Maximum abs         0.064457      0.098148      0.083720      0.000000
--------------------------------------------------------------------------------


  Time to end of optimisation =       1.0066 seconds

 Exiting ------OPTIONS------

  Peak dynamic memory used =       0.60 MB 


  Timing analysis for GULP :

--------------------------------------------------------------------------------
  Task / Subroutine                                          Time (Seconds)
--------------------------------------------------------------------------------
  Calculation of reciprocal space energy and derivatives          0.0664
  Calculation of real space energy and derivatives                0.9233
  Calculation and manipulation of Hessian matrix                  0.0003
  Calculation of matrix inversion                                 0.0010
  Global summation overhead                                       0.0003
--------------------------------------------------------------------------------
  Total CPU time                                                  1.0066
--------------------------------------------------------------------------------


  Job Finished at 11:15.46  3rd February   2020                               

