********************************************************************************
*                       GENERAL UTILITY LATTICE PROGRAM                        *
*                                 Julian Gale                                  *
*                       Curtin Institute for Computation                       *
*                           Department of Chemistry                            *
*                    Curtin University, Western Australia                      *
********************************************************************************
* Version = 5.1.1 * Last modified =  25th August 2019                          *
********************************************************************************
*  optimise     - perform optimisation run                                     *
*  conp         - constant pressure calculation                                *
*  nosymmetry   - turn off symmetry after initial structure generation         *
*  full         - generate full unit cell when symmetry is removed             *
*  conjugate    - use conjugate gradients minimiser                            *
********************************************************************************
* ASE calculation                                                              *
********************************************************************************


  Job Started  at 14:47.51  3rd February   2020                               

  Number of CPUs =     1


  Total number of configurations input =      1

********************************************************************************
*  Input for Configuration =   1                                               *
********************************************************************************

  Formula = O9Sr3Ti3                                                    

  Number of irreducible atoms/shells =      15


  Total number atoms/shells =      15

  Dimensionality = 3               :  Bulk   



  Cartesian lattice vectors (Angstroms) :

        4.000000    0.000000    0.000000
        0.000000    8.000000    0.000000
        0.000000    0.000000   10.000000

  Cell parameters (Angstroms/Degrees):

  a =       4.0000    alpha =  90.0000
  b =       8.0000    beta  =  90.0000
  c =      10.0000    gamma =  90.0000

  Initial cell volume =         320.000000 Angs**3

  Temperature of configuration =  0.000     K 

  Pressure of configuration =         0.000 GPa 

  Fractional coordinates of asymmetric unit :

--------------------------------------------------------------------------------
   No.  Atomic       x           y          z         Charge      Occupancy
        Label      (Frac)      (Frac)     (Frac)        (e)         (Frac)  
--------------------------------------------------------------------------------
      1 O     c    0.500000    0.250000    0.600000    -2.00000    1.000000    
      2 O     c    0.000000 *  0.750000 *  0.800000 *  -2.00000    1.000000    
      3 O     c    0.500000 *  0.500000 *  0.800000 *  -2.00000    1.000000    
      4 O     c    0.500000 *  0.250000 *  0.000000 *  -2.00000    1.000000    
      5 O     c    0.500000 *  0.500000 *  0.200000 *  -2.00000    1.000000    
      6 O     c    0.000000 *  0.500000 *  0.200000 *  -2.00000    1.000000    
      7 O     c    0.000000 *  0.250000 *  0.600000 *  -2.00000    1.000000    
      8 O     c    0.500000 *  0.250000 *  0.400000 *  -2.00000    1.000000    
      9 O     c    0.500000 *  0.500000 *  0.400000 *  -2.00000    1.000000    
     10 Sr    c    0.250000 *  0.875000 *  0.500000 *   2.00000    1.000000    
     11 Sr    c    0.250000 *  0.125000 *  0.900000 *   2.00000    1.000000    
     12 Sr    c    0.250000 *  0.625000 *  0.900000 *   2.00000    1.000000    
     13 Ti    c    0.750000 *  0.875000 *  0.700000 *   4.00000    1.000000    
     14 Ti    c    0.750000 *  0.375000 *  0.100000 *   4.00000    1.000000    
     15 Ti    c    0.250000 *  0.125000 *  0.500000 *   4.00000    1.000000    
--------------------------------------------------------------------------------



********************************************************************************
*  General input information                                                   *
********************************************************************************

  Species output for all configurations : 

--------------------------------------------------------------------------------
  Species    Type    Atomic    Atomic    Charge       Radii (Angs)     Library
                     Number     Mass       (e)     Cova   Ionic  VDW   Symbol
--------------------------------------------------------------------------------
    O        Core        8      16.00  -2.000000   0.730  0.000  1.360          
    Sr       Core       38      87.62   2.000000   1.120  0.000  1.670          
    Ti       Core       22      47.88   4.000000   1.470  0.000  2.190          
--------------------------------------------------------------------------------


  Lattice summation method               =    Ewald          (3-D)
                                         =    Parry          (2-D)
                                         =    Saunders et al (1-D)
  Accuracy factor for lattice sums       =   12.000


  Time limit = Infinity

  Maximum range for interatomic potentials =    100000.000000 Angstroms

  General interatomic potentials :

--------------------------------------------------------------------------------
Atom  Types   Potential      Parameter       Value         Units   Cutoffs(Ang)
  1     2                                                            Min /  Max 
--------------------------------------------------------------------------------
O    c Sr   c Buckingham    Buckingham A     1952.3900    eV        0.000 10.000
                            Buckingham rho  0.33685000    Ang       
                            Buckingham C     19.220000    eV*Ang^6  
--------------------------------------------------------------------------------
O    c Ti   c Buckingham    Buckingham A     4590.7279    eV        0.000 10.000
                            Buckingham rho  0.26100000    Ang       
                            Buckingham C     0.0000000    eV*Ang^6  
--------------------------------------------------------------------------------
O    c O    c Buckingham    Buckingham A     1388.7700    eV        0.000 10.000
                            Buckingham rho  0.36262000    Ang       
                            Buckingham C     175.00000    eV*Ang^6  
--------------------------------------------------------------------------------
 Calling ------OPTIONS------

********************************************************************************
*  Output for configuration   1                                                *
********************************************************************************


  Components of energy : 

--------------------------------------------------------------------------------
  Interatomic potentials     =          97.01435912 eV    
  Monopole - monopole (real) =        -115.35329340 eV    
  Monopole - monopole (recip)=        -197.84378280 eV    
  Monopole - monopole (total)=        -313.19707620 eV    
--------------------------------------------------------------------------------
  Total lattice energy       =        -216.18271708 eV    
--------------------------------------------------------------------------------
  Total lattice energy       =          -20858.3275 kJ/(mole unit cells)
--------------------------------------------------------------------------------


  Number of variables =       48

  Maximum number of calculations  =          1000
  Maximum Hessian update interval =            10
  Maximum step size               =   1.000000000
  Maximum parameter tolerance     =   0.000010000
  Maximum function  tolerance     =   0.000010000
  Maximum gradient  tolerance     =   0.001000000
  Maximum gradient  component     =   0.010000000

  Cell parameters to be optimised using strains

  Conjugate gradient optimiser to be used

  Lower half triangular hessian to be used

  Start of bulk optimisation :

  Cycle:      0 Energy:      -216.182717  Gnorm:     26.153688  CPU:    0.017
 Perform trimming
 Line minimisation2
 ALPHA BEFORE:    1.0000000000000000     
step before apply   ...       0.25000000

funct1    ...    -216.18271708

step before apply   ...       0.25000000

funct1    ...    -308.48502498

  ** Opt : line minimisation
left   ...       0.00000000    -216.18271708
centre ...       0.25000000    -273.30560253
right  ...       0.50000000    -308.48502498

step before apply   ...       0.27579616

last funct1    ...    -328.26969713

left   ...       0.00000000    -216.18271708
centre ...       0.25000000    -273.30560253
right  ...       0.50000000    -308.48502498
new    ...       0.77579616    -328.26969713

__s__    ...       0.27579616

step before apply   ...       0.13550152

last funct1    ...    -332.98357959

left   ...       0.25000000    -273.30560253
centre ...       0.50000000    -308.48502498
right  ...       0.77579616    -328.26969713
new    ...       0.91129767    -332.98357959

__s__    ...       0.13550152

step before apply   ...       0.12587716

last funct1    ...    -335.07537576

left   ...       0.50000000    -308.48502498
centre ...       0.77579616    -328.26969713
right  ...       0.91129767    -332.98357959
new    ...       1.03717483    -335.07537576

__s__    ...       0.12587716

step before apply   ...       0.05658182

last funct1    ...    -335.36627627

left   ...       0.77579616    -328.26969713
centre ...       0.91129767    -332.98357959
right  ...       1.03717483    -335.07537576
new    ...       1.09375665    -335.36627627

__s__    ...       0.05658182

 ALPHA AFTER:    1.0937566518055146     
  Cycle:      1 Energy:      -335.366276  Gnorm:     30.937696  CPU:    0.029
 Perform trimming
 Line minimisation2
 ALPHA BEFORE:    1.0937566518055146     
step before apply   ...       0.27343916

funct1    ...    -335.36627627

step before apply   ...       0.27343916

funct1    ...    -368.36733129

  ** Opt : line minimisation
left   ...       0.00000000    -335.36627627
centre ...       0.27343916    -382.69078566
right  ...       0.54687833    -368.36733129

step before apply   ...      -0.20025117

last funct1    ...    -380.85510697

left   ...       0.00000000    -335.36627627
centre ...       0.27343916    -382.69078566
right  ...       0.54687833    -368.36733129
new    ...       0.34662715    -380.85510697

__s__    ...      -0.20025117

step before apply   ...      -0.05853156

last funct1    ...    -382.54073890

left   ...       0.00000000    -335.36627627
centre ...       0.27343916    -382.69078566
right  ...       0.34662715    -380.85510697
new    ...       0.28809559    -382.54073890

__s__    ...      -0.05853156

step before apply   ...      -0.01537312

last funct1    ...    -382.69476122

left   ...       0.00000000    -335.36627627
centre ...       0.27343916    -382.69078566
right  ...       0.28809559    -382.54073890
new    ...       0.27272246    -382.69476122

__s__    ...      -0.01537312

 ALPHA AFTER:   0.27272246406494022     
  Cycle:      2 Energy:      -382.694761  Gnorm:      7.573414  CPU:    0.036
 Line minimisation2
 ALPHA BEFORE:   0.27272246406494022     
step before apply   ...       0.06818062

funct1    ...    -382.69476122

step before apply   ...       0.06818062

funct1    ...    -395.83270063

  ** Opt : line minimisation
left   ...       0.00000000    -382.69476122
centre ...       0.06818062    -390.46325458
right  ...       0.13636123    -395.83270063

step before apply   ...       0.11850866

last funct1    ...    -399.59975836

left   ...       0.00000000    -382.69476122
centre ...       0.06818062    -390.46325458
right  ...       0.13636123    -395.83270063
new    ...       0.25486989    -399.59975836

__s__    ...       0.11850866

step before apply   ...       0.00392243

last funct1    ...    -399.61053818

left   ...       0.06818062    -390.46325458
centre ...       0.13636123    -395.83270063
right  ...       0.25486989    -399.59975836
new    ...       0.25879232    -399.61053818

__s__    ...       0.00392243

 ALPHA AFTER:   0.25879232074921438     
  Cycle:      3 Energy:      -399.610538  Gnorm:      7.262433  CPU:    0.041
 Line minimisation2
 ALPHA BEFORE:   0.25879232074921438     
step before apply   ...       0.06469808

funct1    ...    -399.61053818

step before apply   ...       0.06469808

funct1    ...    -411.54042926

  ** Opt : line minimisation
left   ...       0.00000000    -399.61053818
centre ...       0.06469808    -406.52160758
right  ...       0.12939616    -411.54042926

step before apply   ...       0.13925012

last funct1    ...    -417.06703513

left   ...       0.00000000    -399.61053818
centre ...       0.06469808    -406.52160758
right  ...       0.12939616    -411.54042926
new    ...       0.26864628    -417.06703513

__s__    ...       0.13925012

step before apply   ...       0.03720410

last funct1    ...    -417.55446414

left   ...       0.06469808    -406.52160758
centre ...       0.12939616    -411.54042926
right  ...       0.26864628    -417.06703513
new    ...       0.30585038    -417.55446414

__s__    ...       0.03720410

 ALPHA AFTER:   0.30585038211981608     
  Cycle:      4 Energy:      -417.554464  Gnorm:      5.368166  CPU:    0.045
 Line minimisation2
 ALPHA BEFORE:   0.30585038211981608     
step before apply   ...       0.07646260

funct1    ...    -417.55446414

step before apply   ...       0.07646260

funct1    ...    -426.03916300

  ** Opt : line minimisation
left   ...       0.00000000    -417.55446414
centre ...       0.07646260    -422.34999888
right  ...       0.15292519    -426.03916300

step before apply   ...       0.21673124

last funct1    ...    -430.82863908

left   ...       0.00000000    -417.55446414
centre ...       0.07646260    -422.34999888
right  ...       0.15292519    -426.03916300
new    ...       0.36965643    -430.82863908

__s__    ...       0.21673124

step before apply   ...       0.01552310

last funct1    ...    -430.85878219

left   ...       0.07646260    -422.34999888
centre ...       0.15292519    -426.03916300
right  ...       0.36965643    -430.82863908
new    ...       0.38517953    -430.85878219

__s__    ...       0.01552310

 ALPHA AFTER:   0.38517952923918297     
  Cycle:      5 Energy:      -430.858782  Gnorm:      4.851140  CPU:    0.049
 Line minimisation2
 ALPHA BEFORE:   0.38517952923918297     
step before apply   ...       0.09629488

funct1    ...    -430.85878219

step before apply   ...       0.09629488

funct1    ...    -437.14362094

  ** Opt : line minimisation
left   ...       0.00000000    -430.85878219
centre ...       0.09629488    -435.18516970
right  ...       0.19258976    -437.14362094

step before apply   ...       0.03149526

last funct1    ...    -437.15478790

left   ...       0.00000000    -430.85878219
centre ...       0.09629488    -435.18516970
right  ...       0.19258976    -437.14362094
new    ...       0.22408502    -437.15478790

__s__    ...       0.03149526

 ALPHA AFTER:   0.22408502110484219     
  Cycle:      6 Energy:      -437.154788  Gnorm:      6.439556  CPU:    0.052
 Perform trimming
 Line minimisation2
 ALPHA BEFORE:   0.22408502110484219     
step before apply   ...       0.05602126

funct1    ...    -437.15478790

step before apply   ...       0.05602126

funct1    ...    -443.82138687

  ** Opt : line minimisation
left   ...       0.00000000    -437.15478790
centre ...       0.05602126    -441.03504025
right  ...       0.11204251    -443.82138687

step before apply   ...       0.11468415

last funct1    ...    -445.63324260

left   ...       0.00000000    -437.15478790
centre ...       0.05602126    -441.03504025
right  ...       0.11204251    -443.82138687
new    ...       0.22672666    -445.63324260

__s__    ...       0.11468415

step before apply   ...      -0.01760985

last funct1    ...    -445.71396624

left   ...       0.05602126    -441.03504025
centre ...       0.11204251    -443.82138687
right  ...       0.22672666    -445.63324260
new    ...       0.20911681    -445.71396624

__s__    ...      -0.01760985

 ALPHA AFTER:   0.20911681145859148     
  Cycle:      7 Energy:      -445.713966  Gnorm:      3.374507  CPU:    0.056
 Line minimisation2
 ALPHA BEFORE:   0.20911681145859148     
step before apply   ...       0.05227920

funct1    ...    -445.71396624

step before apply   ...       0.05227920

funct1    ...    -447.72649776

  ** Opt : line minimisation
left   ...       0.00000000    -445.71396624
centre ...       0.05227920    -446.89741178
right  ...       0.10455841    -447.72649776

step before apply   ...       0.09617671

last funct1    ...    -448.42792571

left   ...       0.00000000    -445.71396624
centre ...       0.05227920    -446.89741178
right  ...       0.10455841    -447.72649776
new    ...       0.20073512    -448.42792571

__s__    ...       0.09617671

step before apply   ...       0.01511179

last funct1    ...    -448.44935107

left   ...       0.05227920    -446.89741178
centre ...       0.10455841    -447.72649776
right  ...       0.20073512    -448.42792571
new    ...       0.21584691    -448.44935107

__s__    ...       0.01511179

 ALPHA AFTER:   0.21584690839858697     
  Cycle:      8 Energy:      -448.449351  Gnorm:      3.417856  CPU:    0.060
 Line minimisation2
 ALPHA BEFORE:   0.21584690839858697     
step before apply   ...       0.05396173

funct1    ...    -448.44935107

step before apply   ...       0.05396173

funct1    ...    -450.55566728

  ** Opt : line minimisation
left   ...       0.00000000    -448.44935107
centre ...       0.05396173    -449.71685894
right  ...       0.10792345    -450.55566728

step before apply   ...       0.07860252

last funct1    ...    -451.07945587

left   ...       0.00000000    -448.44935107
centre ...       0.05396173    -449.71685894
right  ...       0.10792345    -450.55566728
new    ...       0.18652598    -451.07945587

__s__    ...       0.07860252

step before apply   ...       0.01043426

last funct1    ...    -451.09000986

left   ...       0.05396173    -449.71685894
centre ...       0.10792345    -450.55566728
right  ...       0.18652598    -451.07945587
new    ...       0.19696024    -451.09000986

__s__    ...       0.01043426

 ALPHA AFTER:   0.19696024096120227     
  Cycle:      9 Energy:      -451.090010  Gnorm:      2.446693  CPU:    0.064
 Line minimisation2
 ALPHA BEFORE:   0.19696024096120227     
step before apply   ...       0.04924006

funct1    ...    -451.09000986

step before apply   ...       0.04924006

funct1    ...    -452.02417273

  ** Opt : line minimisation
left   ...       0.00000000    -451.09000986
centre ...       0.04924006    -451.66378286
right  ...       0.09848012    -452.02417273

step before apply   ...       0.05854314

last funct1    ...    -452.20910039

left   ...       0.00000000    -451.09000986
centre ...       0.04924006    -451.66378286
right  ...       0.09848012    -452.02417273
new    ...       0.15702326    -452.20910039

__s__    ...       0.05854314

 ALPHA AFTER:   0.15702326322252885     
  Cycle:     10 Energy:      -452.209100  Gnorm:      1.797666  CPU:    0.068
 Line minimisation2
 ALPHA BEFORE:   0.15702326322252885     
step before apply   ...       0.03925582

funct1    ...    -452.20910039

step before apply   ...       0.03925582

funct1    ...    -452.76492388

  ** Opt : line minimisation
left   ...       0.00000000    -452.20910039
centre ...       0.03925582    -452.50797822
right  ...       0.07851163    -452.76492388

step before apply   ...       0.22091806

last funct1    ...    -453.37222275

left   ...       0.00000000    -452.20910039
centre ...       0.03925582    -452.50797822
right  ...       0.07851163    -452.76492388
new    ...       0.29942969    -453.37222275

__s__    ...       0.22091806

step before apply   ...      -0.01626388

last funct1    ...    -453.37912928

left   ...       0.03925582    -452.50797822
centre ...       0.07851163    -452.76492388
right  ...       0.29942969    -453.37222275
new    ...       0.28316581    -453.37912928

__s__    ...      -0.01626388

 ALPHA AFTER:   0.28316581472184293     
  Cycle:     11 Energy:      -453.379129  Gnorm:      2.000249  CPU:    0.073
 Perform trimming
 Line minimisation2
 ALPHA BEFORE:   0.28316581472184293     
step before apply   ...       0.07079145

funct1    ...    -453.37912928

step before apply   ...       0.07079145

funct1    ...    -454.38609885

  ** Opt : line minimisation
left   ...       0.00000000    -453.37912928
centre ...       0.07079145    -453.93764678
right  ...       0.14158291    -454.38609885

step before apply   ...       0.25303792

last funct1    ...    -454.95940672

left   ...       0.00000000    -453.37912928
centre ...       0.07079145    -453.93764678
right  ...       0.14158291    -454.38609885
new    ...       0.39462083    -454.95940672

__s__    ...       0.25303792

step before apply   ...      -0.03636464

last funct1    ...    -454.98653664

left   ...       0.07079145    -453.93764678
centre ...       0.14158291    -454.38609885
right  ...       0.39462083    -454.95940672
new    ...       0.35825619    -454.98653664

__s__    ...      -0.03636464

 ALPHA AFTER:   0.35825618834699235     
  Cycle:     12 Energy:      -454.986537  Gnorm:      2.217319  CPU:    0.077
 Line minimisation2
 ALPHA BEFORE:   0.35825618834699235     
step before apply   ...       0.08956405

funct1    ...    -454.98653664

step before apply   ...       0.08956405

funct1    ...    -456.23315808

  ** Opt : line minimisation
left   ...       0.00000000    -454.98653664
centre ...       0.08956405    -455.79288337
right  ...       0.17912809    -456.23315808

step before apply   ...       0.06293663

last funct1    ...    -456.34190354

left   ...       0.00000000    -454.98653664
centre ...       0.08956405    -455.79288337
right  ...       0.17912809    -456.23315808
new    ...       0.24206472    -456.34190354

__s__    ...       0.06293663

 ALPHA AFTER:   0.24206472071906060     
  Cycle:     13 Energy:      -456.341904  Gnorm:      1.713868  CPU:    0.081
 Line minimisation2
 ALPHA BEFORE:   0.24206472071906060     
step before apply   ...       0.06051618

funct1    ...    -456.34190354

step before apply   ...       0.06051618

funct1    ...    -456.85233913

  ** Opt : line minimisation
left   ...       0.00000000    -456.34190354
centre ...       0.06051618    -456.68005099
right  ...       0.12103236    -456.85233913

step before apply   ...       0.03260374

last funct1    ...    -456.87613287

left   ...       0.00000000    -456.34190354
centre ...       0.06051618    -456.68005099
right  ...       0.12103236    -456.85233913
new    ...       0.15363610    -456.87613287

__s__    ...       0.03260374

 ALPHA AFTER:   0.15363610318971957     
  Cycle:     14 Energy:      -456.876133  Gnorm:      1.286762  CPU:    0.085
 Line minimisation2
 ALPHA BEFORE:   0.15363610318971957     
step before apply   ...       0.03840903

funct1    ...    -456.87613287

step before apply   ...       0.03840903

funct1    ...    -457.12689540

  ** Opt : line minimisation
left   ...       0.00000000    -456.87613287
centre ...       0.03840903    -457.01210428
right  ...       0.07681805    -457.12689540

step before apply   ...       0.18896138

last funct1    ...    -457.39318729

left   ...       0.00000000    -456.87613287
centre ...       0.03840903    -457.01210428
right  ...       0.07681805    -457.12689540
new    ...       0.26577943    -457.39318729

__s__    ...       0.18896138

step before apply   ...       0.00695574

last funct1    ...    -457.39385972

left   ...       0.03840903    -457.01210428
centre ...       0.07681805    -457.12689540
right  ...       0.26577943    -457.39318729
new    ...       0.27273518    -457.39385972

__s__    ...       0.00695574

 ALPHA AFTER:   0.27273517647006307     
  Cycle:     15 Energy:      -457.393860  Gnorm:      1.103273  CPU:    0.089
 Line minimisation2
 ALPHA BEFORE:   0.27273517647006307     
step before apply   ...       0.06818379

funct1    ...    -457.39385972

step before apply   ...       0.06818379

funct1    ...    -457.69305827

  ** Opt : line minimisation
left   ...       0.00000000    -457.39385972
centre ...       0.06818379    -457.56540940
right  ...       0.13636759    -457.69305827

step before apply   ...       0.16416377

last funct1    ...    -457.82749817

left   ...       0.00000000    -457.39385972
centre ...       0.06818379    -457.56540940
right  ...       0.13636759    -457.69305827
new    ...       0.30053136    -457.82749817

__s__    ...       0.16416377

step before apply   ...       0.00825221

last funct1    ...    -457.82791788

left   ...       0.06818379    -457.56540940
centre ...       0.13636759    -457.69305827
right  ...       0.30053136    -457.82749817
new    ...       0.30878356    -457.82791788

__s__    ...       0.00825221

 ALPHA AFTER:   0.30878356372364274     
  Cycle:     16 Energy:      -457.827918  Gnorm:      1.193532  CPU:    0.094
 Line minimisation2
 ALPHA BEFORE:   0.30878356372364274     
step before apply   ...       0.07719589

funct1    ...    -457.82791788

step before apply   ...       0.07719589

funct1    ...    -458.26331571

  ** Opt : line minimisation
left   ...       0.00000000    -457.82791788
centre ...       0.07719589    -458.06417210
right  ...       0.15439178    -458.26331571

step before apply   ...       0.37565215

last funct1    ...    -458.67472868

left   ...       0.00000000    -457.82791788
centre ...       0.07719589    -458.06417210
right  ...       0.15439178    -458.26331571
new    ...       0.53004394    -458.67472868

__s__    ...       0.37565215

step before apply   ...      -0.02078311

last funct1    ...    -458.67656367

left   ...       0.07719589    -458.06417210
centre ...       0.15439178    -458.26331571
right  ...       0.53004394    -458.67472868
new    ...       0.50926082    -458.67656367

__s__    ...      -0.02078311

 ALPHA AFTER:   0.50926082208234091     
  Cycle:     17 Energy:      -458.676564  Gnorm:      1.450554  CPU:    0.099
 Perform trimming
 Line minimisation2
 ALPHA BEFORE:   0.50926082208234091     
step before apply   ...       0.12731521

funct1    ...    -458.67656367

step before apply   ...       0.12731521

funct1    ...    -458.94759174

  ** Opt : line minimisation
left   ...       0.00000000    -458.67656367
centre ...       0.12731521    -459.04143367
right  ...       0.25463041    -458.94759174

step before apply   ...      -0.08970337

last funct1    ...    -459.05940984

left   ...       0.00000000    -458.67656367
centre ...       0.12731521    -459.04143367
right  ...       0.25463041    -458.94759174
new    ...       0.16492704    -459.05940984

__s__    ...      -0.08970337

step before apply   ...      -0.00116314

last funct1    ...    -459.05944207

left   ...       0.12731521    -459.04143367
centre ...       0.16492704    -459.05940984
right  ...       0.25463041    -458.94759174
new    ...       0.16376390    -459.05944207

__s__    ...      -0.00116314

 ALPHA AFTER:   0.16376390261260673     
  Cycle:     18 Energy:      -459.059442  Gnorm:      1.324505  CPU:    0.103
 Line minimisation2
 ALPHA BEFORE:   0.16376390261260673     
step before apply   ...       0.04094098

funct1    ...    -459.05944207

step before apply   ...       0.04094098

funct1    ...    -459.34983972

  ** Opt : line minimisation
left   ...       0.00000000    -459.05944207
centre ...       0.04094098    -459.21452449
right  ...       0.08188195    -459.34983972

step before apply   ...       0.25978870

last funct1    ...    -459.70738930

left   ...       0.00000000    -459.05944207
centre ...       0.04094098    -459.21452449
right  ...       0.08188195    -459.34983972
new    ...       0.34167066    -459.70738930

__s__    ...       0.25978870

step before apply   ...      -0.02260156

last funct1    ...    -459.71158534

left   ...       0.04094098    -459.21452449
centre ...       0.08188195    -459.34983972
right  ...       0.34167066    -459.70738930
new    ...       0.31906909    -459.71158534

__s__    ...      -0.02260156

 ALPHA AFTER:   0.31906909145462353     
  Cycle:     19 Energy:      -459.711585  Gnorm:      1.149213  CPU:    0.108
 Line minimisation2
 ALPHA BEFORE:   0.31906909145462353     
step before apply   ...       0.07976727

funct1    ...    -459.71158534

step before apply   ...       0.07976727

funct1    ...    -459.95596215

  ** Opt : line minimisation
left   ...       0.00000000    -459.71158534
centre ...       0.07976727    -459.89294610
right  ...       0.15953455    -459.95596215

step before apply   ...       0.00259075

last funct1    ...    -459.95609092

left   ...       0.00000000    -459.71158534
centre ...       0.07976727    -459.89294610
right  ...       0.15953455    -459.95596215
new    ...       0.16212529    -459.95609092

__s__    ...       0.00259075

 ALPHA AFTER:   0.16212529271902498     
  Cycle:     20 Energy:      -459.956091  Gnorm:      0.786178  CPU:    0.111
 Line minimisation2
 ALPHA BEFORE:   0.16212529271902498     
step before apply   ...       0.04053132

funct1    ...    -459.95609092

step before apply   ...       0.04053132

funct1    ...    -460.06051172

  ** Opt : line minimisation
left   ...       0.00000000    -459.95609092
centre ...       0.04053132    -460.01143565
right  ...       0.08106265    -460.06051172

step before apply   ...       0.29704537

last funct1    ...    -460.22756522

left   ...       0.00000000    -459.95609092
centre ...       0.04053132    -460.01143565
right  ...       0.08106265    -460.06051172
new    ...       0.37810801    -460.22756522

__s__    ...       0.29704537

step before apply   ...      -0.00213341

last funct1    ...    -460.22758185

left   ...       0.04053132    -460.01143565
centre ...       0.08106265    -460.06051172
right  ...       0.37810801    -460.22756522
new    ...       0.37597460    -460.22758185

__s__    ...      -0.00213341

 ALPHA AFTER:   0.37597460095028212     
  Cycle:     21 Energy:      -460.227582  Gnorm:      0.789178  CPU:    0.116
 Line minimisation2
 ALPHA BEFORE:   0.37597460095028212     
step before apply   ...       0.09399365

funct1    ...    -460.22758185

step before apply   ...       0.09399365

funct1    ...    -460.41928062

  ** Opt : line minimisation
left   ...       0.00000000    -460.22758185
centre ...       0.09399365    -460.34278121
right  ...       0.18798730    -460.41928062

step before apply   ...       0.13880341

last funct1    ...    -460.46467391

left   ...       0.00000000    -460.22758185
centre ...       0.09399365    -460.34278121
right  ...       0.18798730    -460.41928062
new    ...       0.32679071    -460.46467391

__s__    ...       0.13880341

 ALPHA AFTER:   0.32679071148388428     
  Cycle:     22 Energy:      -460.464674  Gnorm:      0.688213  CPU:    0.120
 Line minimisation2
 ALPHA BEFORE:   0.32679071148388428     
step before apply   ...       0.08169768

funct1    ...    -460.46467391

step before apply   ...       0.08169768

funct1    ...    -460.59009785

  ** Opt : line minimisation
left   ...       0.00000000    -460.46467391
centre ...       0.08169768    -460.54229065
right  ...       0.16339536    -460.59009785

step before apply   ...       0.09017418

last funct1    ...    -460.60821165

left   ...       0.00000000    -460.46467391
centre ...       0.08169768    -460.54229065
right  ...       0.16339536    -460.59009785
new    ...       0.25356953    -460.60821165

__s__    ...       0.09017418

 ALPHA AFTER:   0.25356953274214156     
  Cycle:     23 Energy:      -460.608212  Gnorm:      0.789072  CPU:    0.124
 Perform trimming
 Line minimisation2
 ALPHA BEFORE:   0.25356953274214156     
step before apply   ...       0.06339238

funct1    ...    -460.60821165

step before apply   ...       0.06339238

funct1    ...    -460.76028686

  ** Opt : line minimisation
left   ...       0.00000000    -460.60821165
centre ...       0.06339238    -460.69124548
right  ...       0.12678477    -460.76028686

step before apply   ...       0.28109358

last funct1    ...    -460.89616099

left   ...       0.00000000    -460.60821165
centre ...       0.06339238    -460.69124548
right  ...       0.12678477    -460.76028686
new    ...       0.40787835    -460.89616099

__s__    ...       0.28109358

step before apply   ...      -0.00309674

last funct1    ...    -460.89620014

left   ...       0.06339238    -460.69124548
centre ...       0.12678477    -460.76028686
right  ...       0.40787835    -460.89616099
new    ...       0.40478161    -460.89620014

__s__    ...      -0.00309674

 ALPHA AFTER:   0.40478160622160436     
  Cycle:     24 Energy:      -460.896200  Gnorm:      0.983486  CPU:    0.128
 Perform trimming
 Line minimisation2
 ALPHA BEFORE:   0.40478160622160436     
step before apply   ...       0.10119540

funct1    ...    -460.89620014

step before apply   ...       0.10119540

funct1    ...    -461.19640434

  ** Opt : line minimisation
left   ...       0.00000000    -460.89620014
centre ...       0.10119540    -461.07889294
right  ...       0.20239080    -461.19640434

step before apply   ...       0.13184104

last funct1    ...    -461.24673063

left   ...       0.00000000    -460.89620014
centre ...       0.10119540    -461.07889294
right  ...       0.20239080    -461.19640434
new    ...       0.33423185    -461.24673063

__s__    ...       0.13184104

 ALPHA AFTER:   0.33423184629340330     
  Cycle:     25 Energy:      -461.246731  Gnorm:      1.179094  CPU:    0.132
 Perform trimming
 Line minimisation2
 ALPHA BEFORE:   0.33423184629340330     
step before apply   ...       0.08355796

funct1    ...    -461.24673063

step before apply   ...       0.08355796

funct1    ...    -461.69430725

  ** Opt : line minimisation
left   ...       0.00000000    -461.24673063
centre ...       0.08355796    -461.48512516
right  ...       0.16711592    -461.69430725

step before apply   ...       0.55655631

last funct1    ...    -461.91376542

left   ...       0.00000000    -461.24673063
centre ...       0.08355796    -461.48512516
right  ...       0.16711592    -461.69430725
new    ...       0.72367224    -461.91376542

__s__    ...       0.55655631

step before apply   ...      -0.21844136

last funct1    ...    -462.13976674

left   ...       0.08355796    -461.48512516
centre ...       0.16711592    -461.69430725
right  ...       0.72367224    -461.91376542
new    ...       0.50523088    -462.13976674

__s__    ...      -0.21844136

step before apply   ...      -0.01318502

last funct1    ...    -462.13757053

left   ...       0.16711592    -461.69430725
centre ...       0.50523088    -462.13976674
right  ...       0.72367224    -461.91376542
new    ...       0.49204586    -462.13757053

__s__    ...      -0.01318502

 ALPHA AFTER:   0.50523087532532129     
  Cycle:     26 Energy:      -462.139767  Gnorm:      0.942601  CPU:    0.137
 Line minimisation2
 ALPHA BEFORE:   0.50523087532532129     
step before apply   ...       0.12630772

funct1    ...    -462.13976674

step before apply   ...       0.12630772

funct1    ...    -462.44659044

  ** Opt : line minimisation
left   ...       0.00000000    -462.13976674
centre ...       0.12630772    -462.34864348
right  ...       0.25261544    -462.44659044

step before apply   ...       0.04837127

last funct1    ...    -462.45474583

left   ...       0.00000000    -462.13976674
centre ...       0.12630772    -462.34864348
right  ...       0.25261544    -462.44659044
new    ...       0.30098670    -462.45474583

__s__    ...       0.04837127

 ALPHA AFTER:   0.30098670332524563     
  Cycle:     27 Energy:      -462.454746  Gnorm:      0.963693  CPU:    0.141
 Line minimisation2
 ALPHA BEFORE:   0.30098670332524563     
step before apply   ...       0.07524668

funct1    ...    -462.45474583

step before apply   ...       0.07524668

funct1    ...    -462.67991290

  ** Opt : line minimisation
left   ...       0.00000000    -462.45474583
centre ...       0.07524668    -462.59224445
right  ...       0.15049335    -462.67991290

step before apply   ...       0.09476150

last funct1    ...    -462.72137793

left   ...       0.00000000    -462.45474583
centre ...       0.07524668    -462.59224445
right  ...       0.15049335    -462.67991290
new    ...       0.24525485    -462.72137793

__s__    ...       0.09476150

 ALPHA AFTER:   0.24525485485483223     
  Cycle:     28 Energy:      -462.721378  Gnorm:      0.771759  CPU:    0.145
 Line minimisation2
 ALPHA BEFORE:   0.24525485485483223     
step before apply   ...       0.06131371

funct1    ...    -462.72137793

step before apply   ...       0.06131371

funct1    ...    -462.86324204

  ** Opt : line minimisation
left   ...       0.00000000    -462.72137793
centre ...       0.06131371    -462.79968083
right  ...       0.12262743    -462.86324204

step before apply   ...       0.23370731

last funct1    ...    -462.96757078

left   ...       0.00000000    -462.72137793
centre ...       0.06131371    -462.79968083
right  ...       0.12262743    -462.86324204
new    ...       0.35633473    -462.96757078

__s__    ...       0.23370731

step before apply   ...      -0.00529067

last funct1    ...    -462.96765009

left   ...       0.06131371    -462.79968083
centre ...       0.12262743    -462.86324204
right  ...       0.35633473    -462.96757078
new    ...       0.35104407    -462.96765009

__s__    ...      -0.00529067

 ALPHA AFTER:   0.35104406829380735     
  Cycle:     29 Energy:      -462.967650  Gnorm:      0.744655  CPU:    0.150
 Line minimisation2
 ALPHA BEFORE:   0.35104406829380735     
step before apply   ...       0.08776102

funct1    ...    -462.96765009

step before apply   ...       0.08776102

funct1    ...    -463.03722893

  ** Opt : line minimisation
left   ...       0.00000000    -462.96765009
centre ...       0.08776102    -463.04076817
right  ...       0.17552203    -463.03722893

step before apply   ...      -0.04793240

last funct1    ...    -463.04837571

left   ...       0.00000000    -462.96765009
centre ...       0.08776102    -463.04076817
right  ...       0.17552203    -463.03722893
new    ...       0.12758963    -463.04837571

__s__    ...      -0.04793240

 ALPHA AFTER:   0.12758963245673377     
  Cycle:     30 Energy:      -463.048376  Gnorm:      0.509065  CPU:    0.153
 Line minimisation2
 ALPHA BEFORE:   0.12758963245673377     
step before apply   ...       0.03189741

funct1    ...    -463.04837571

step before apply   ...       0.03189741

funct1    ...    -463.08290522

  ** Opt : line minimisation
left   ...       0.00000000    -463.04837571
centre ...       0.03189741    -463.06658772
right  ...       0.06379482    -463.08290522

step before apply   ...       0.25878642

last funct1    ...    -463.14675875

left   ...       0.00000000    -463.04837571
centre ...       0.03189741    -463.06658772
right  ...       0.06379482    -463.08290522
new    ...       0.32258123    -463.14675875

__s__    ...       0.25878642

step before apply   ...       0.00602712

last funct1    ...    -463.14700611

left   ...       0.03189741    -463.06658772
centre ...       0.06379482    -463.08290522
right  ...       0.32258123    -463.14675875
new    ...       0.32860835    -463.14700611

__s__    ...       0.00602712

 ALPHA AFTER:   0.32860835059248045     
  Cycle:     31 Energy:      -463.147006  Gnorm:      0.467182  CPU:    0.158
 Line minimisation2
 ALPHA BEFORE:   0.32860835059248045     
step before apply   ...       0.08215209

funct1    ...    -463.14700611

step before apply   ...       0.08215209

funct1    ...    -463.21427704

  ** Opt : line minimisation
left   ...       0.00000000    -463.14700611
centre ...       0.08215209    -463.18479187
right  ...       0.16430418    -463.21427704

step before apply   ...       0.25074282

last funct1    ...    -463.25281280

left   ...       0.00000000    -463.14700611
centre ...       0.08215209    -463.18479187
right  ...       0.16430418    -463.21427704
new    ...       0.41504700    -463.25281280

__s__    ...       0.25074282

step before apply   ...      -0.00072322

last funct1    ...    -463.25281510

left   ...       0.08215209    -463.18479187
centre ...       0.16430418    -463.21427704
right  ...       0.41504700    -463.25281280
new    ...       0.41432378    -463.25281510

__s__    ...      -0.00072322

 ALPHA AFTER:   0.41432377691337735     
  Cycle:     32 Energy:      -463.252815  Gnorm:      0.554191  CPU:    0.163
 Perform trimming
 Line minimisation2
 ALPHA BEFORE:   0.41432377691337735     
step before apply   ...       0.10358094

funct1    ...    -463.25281510

step before apply   ...       0.10358094

funct1    ...    -463.34769374

  ** Opt : line minimisation
left   ...       0.00000000    -463.25281510
centre ...       0.10358094    -463.31060908
right  ...       0.20716189    -463.34769374

step before apply   ...       0.13369436

last funct1    ...    -463.36440214

left   ...       0.00000000    -463.25281510
centre ...       0.10358094    -463.31060908
right  ...       0.20716189    -463.34769374
new    ...       0.34085624    -463.36440214

__s__    ...       0.13369436

 ALPHA AFTER:   0.34085624478672777     
  Cycle:     33 Energy:      -463.364402  Gnorm:      0.513581  CPU:    0.167
 Line minimisation2
 ALPHA BEFORE:   0.34085624478672777     
step before apply   ...       0.08521406

funct1    ...    -463.36440214

step before apply   ...       0.08521406

funct1    ...    -463.44495673

  ** Opt : line minimisation
left   ...       0.00000000    -463.36440214
centre ...       0.08521406    -463.41015200
right  ...       0.17042812    -463.44495673

step before apply   ...       0.22836754

last funct1    ...    -463.48732116

left   ...       0.00000000    -463.36440214
centre ...       0.08521406    -463.41015200
right  ...       0.17042812    -463.44495673
new    ...       0.39879566    -463.48732116

__s__    ...       0.22836754

step before apply   ...       0.01628936

last funct1    ...    -463.48752657

left   ...       0.08521406    -463.41015200
centre ...       0.17042812    -463.44495673
right  ...       0.39879566    -463.48732116
new    ...       0.41508503    -463.48752657

__s__    ...       0.01628936

 ALPHA AFTER:   0.41508502730076741     
  Cycle:     34 Energy:      -463.487527  Gnorm:      0.485833  CPU:    0.172
 Line minimisation2
 ALPHA BEFORE:   0.41508502730076741     
step before apply   ...       0.10377126

funct1    ...    -463.48752657

step before apply   ...       0.10377126

funct1    ...    -463.54809862

  ** Opt : line minimisation
left   ...       0.00000000    -463.48752657
centre ...       0.10377126    -463.53106999
right  ...       0.20754251    -463.54809862

step before apply   ...       0.01475953

last funct1    ...    -463.54830969

left   ...       0.00000000    -463.48752657
centre ...       0.10377126    -463.53106999
right  ...       0.20754251    -463.54809862
new    ...       0.22230205    -463.54830969

__s__    ...       0.01475953

 ALPHA AFTER:   0.22230204565854891     
  Cycle:     35 Energy:      -463.548310  Gnorm:      0.445036  CPU:    0.175
 Line minimisation2
 ALPHA BEFORE:   0.22230204565854891     
step before apply   ...       0.05557551

funct1    ...    -463.54830969

step before apply   ...       0.05557551

funct1    ...    -463.59174640

  ** Opt : line minimisation
left   ...       0.00000000    -463.54830969
centre ...       0.05557551    -463.57181318
right  ...       0.11115102    -463.59174640

step before apply   ...       0.28249653

last funct1    ...    -463.63392594

left   ...       0.00000000    -463.54830969
centre ...       0.05557551    -463.57181318
right  ...       0.11115102    -463.59174640
new    ...       0.39364755    -463.63392594

__s__    ...       0.28249653

step before apply   ...      -0.02069588

last funct1    ...    -463.63418991

left   ...       0.05557551    -463.57181318
centre ...       0.11115102    -463.59174640
right  ...       0.39364755    -463.63392594
new    ...       0.37295167    -463.63418991

__s__    ...      -0.02069588

 ALPHA AFTER:   0.37295167477366814     
  Cycle:     36 Energy:      -463.634190  Gnorm:      0.551248  CPU:    0.180
 Perform trimming
 Line minimisation2
 ALPHA BEFORE:   0.37295167477366814     
step before apply   ...       0.09323792

funct1    ...    -463.63418991

step before apply   ...       0.09323792

funct1    ...    -463.71574046

  ** Opt : line minimisation
left   ...       0.00000000    -463.63418991
centre ...       0.09323792    -463.68509866
right  ...       0.18647584    -463.71574046

step before apply   ...       0.09434835

last funct1    ...    -463.72613047

left   ...       0.00000000    -463.63418991
centre ...       0.09323792    -463.68509866
right  ...       0.18647584    -463.71574046
new    ...       0.28082418    -463.72613047

__s__    ...       0.09434835

 ALPHA AFTER:   0.28082418239008466     
  Cycle:     37 Energy:      -463.726130  Gnorm:      0.544774  CPU:    0.184
 Line minimisation2
 ALPHA BEFORE:   0.28082418239008466     
step before apply   ...       0.07020605

funct1    ...    -463.72613047

step before apply   ...       0.07020605

funct1    ...    -463.81299590

  ** Opt : line minimisation
left   ...       0.00000000    -463.72613047
centre ...       0.07020605    -463.77169635
right  ...       0.14041209    -463.81299590

step before apply   ...       0.64451594

last funct1    ...    -463.96433792

left   ...       0.00000000    -463.72613047
centre ...       0.07020605    -463.77169635
right  ...       0.14041209    -463.81299590
new    ...       0.78492804    -463.96433792

__s__    ...       0.64451594

step before apply   ...      -0.08484271

last funct1    ...    -463.96853394

left   ...       0.07020605    -463.77169635
centre ...       0.14041209    -463.81299590
right  ...       0.78492804    -463.96433792
new    ...       0.70008533    -463.96853394

__s__    ...      -0.08484271

 ALPHA AFTER:   0.70008532920673550     
  Cycle:     38 Energy:      -463.968534  Gnorm:      0.664502  CPU:    0.188
 Perform trimming
 Line minimisation2
 ALPHA BEFORE:   0.70008532920673550     
step before apply   ...       0.17502133

funct1    ...    -463.96853394

step before apply   ...       0.17502133

funct1    ...    -464.22185080

  ** Opt : line minimisation
left   ...       0.00000000    -463.96853394
centre ...       0.17502133    -464.11074421
right  ...       0.35004266    -464.22185080

step before apply   ...       0.53768923

last funct1    ...    -464.34712251

left   ...       0.00000000    -463.96853394
centre ...       0.17502133    -464.11074421
right  ...       0.35004266    -464.22185080
new    ...       0.88773190    -464.34712251

__s__    ...       0.53768923

step before apply   ...      -0.06223226

last funct1    ...    -464.35098150

left   ...       0.17502133    -464.11074421
centre ...       0.35004266    -464.22185080
right  ...       0.88773190    -464.34712251
new    ...       0.82549964    -464.35098150

__s__    ...      -0.06223226

 ALPHA AFTER:   0.82549963657339764     
  Cycle:     39 Energy:      -464.350981  Gnorm:      0.797337  CPU:    0.193
 Line minimisation2
 ALPHA BEFORE:   0.82549963657339764     
step before apply   ...       0.20637491

funct1    ...    -464.35098150

step before apply   ...       0.20637491

funct1    ...    -464.34668578

  ** Opt : line minimisation
left   ...       0.00000000    -464.35098150
centre ...       0.20637491    -464.49931611
right  ...       0.41274982    -464.34668578

step before apply   ...      -0.20784772

last funct1    ...    -464.49933959

left   ...       0.00000000    -464.35098150
centre ...       0.20637491    -464.49931611
right  ...       0.41274982    -464.34668578
new    ...       0.20490210    -464.49933959

__s__    ...      -0.20784772

step before apply   ...      -0.00148637

last funct1    ...    -464.49934773

left   ...       0.00000000    -464.35098150
centre ...       0.20490210    -464.49933959
right  ...       0.20637491    -464.49931611
new    ...       0.20341573    -464.49934773

__s__    ...      -0.00148637

 ALPHA AFTER:   0.20341573268621121     
  Cycle:     40 Energy:      -464.499348  Gnorm:      0.777423  CPU:    0.198
 Line minimisation2
 ALPHA BEFORE:   0.20341573268621121     
step before apply   ...       0.05085393

funct1    ...    -464.49934773

step before apply   ...       0.05085393

funct1    ...    -464.60707088

  ** Opt : line minimisation
left   ...       0.00000000    -464.49934773
centre ...       0.05085393    -464.56158677
right  ...       0.10170787    -464.60707088

step before apply   ...       0.11262472

last funct1    ...    -464.64854620

left   ...       0.00000000    -464.49934773
centre ...       0.05085393    -464.56158677
right  ...       0.10170787    -464.60707088
new    ...       0.21433258    -464.64854620

__s__    ...       0.11262472

step before apply   ...       0.00089886

last funct1    ...    -464.64855297

left   ...       0.05085393    -464.56158677
centre ...       0.10170787    -464.60707088
right  ...       0.21433258    -464.64854620
new    ...       0.21523144    -464.64855297

__s__    ...       0.00089886

 ALPHA AFTER:   0.21523143813216478     
  Cycle:     41 Energy:      -464.648553  Gnorm:      0.549213  CPU:    0.203
 Line minimisation2
 ALPHA BEFORE:   0.21523143813216478     
step before apply   ...       0.05380786

funct1    ...    -464.64855297

step before apply   ...       0.05380786

funct1    ...    -464.71186168

  ** Opt : line minimisation
left   ...       0.00000000    -464.64855297
centre ...       0.05380786    -464.68313973
right  ...       0.10761572    -464.71186168

step before apply   ...       0.23661195

last funct1    ...    -464.76760706

left   ...       0.00000000    -464.64855297
centre ...       0.05380786    -464.68313973
right  ...       0.10761572    -464.71186168
new    ...       0.34422767    -464.76760706

__s__    ...       0.23661195

step before apply   ...      -0.00357608

last funct1    ...    -464.76763014

left   ...       0.05380786    -464.68313973
centre ...       0.10761572    -464.71186168
right  ...       0.34422767    -464.76760706
new    ...       0.34065159    -464.76763014

__s__    ...      -0.00357608

 ALPHA AFTER:   0.34065159036403153     
  Cycle:     42 Energy:      -464.767630  Gnorm:      0.559665  CPU:    0.207
 Line minimisation2
 ALPHA BEFORE:   0.34065159036403153     
step before apply   ...       0.08516290

funct1    ...    -464.76763014

step before apply   ...       0.08516290

funct1    ...    -464.85493450

  ** Opt : line minimisation
left   ...       0.00000000    -464.76763014
centre ...       0.08516290    -464.82016840
right  ...       0.17032580    -464.85493450

step before apply   ...       0.12401527

last funct1    ...    -464.87305169

left   ...       0.00000000    -464.76763014
centre ...       0.08516290    -464.82016840
right  ...       0.17032580    -464.85493450
new    ...       0.29434106    -464.87305169

__s__    ...       0.12401527

 ALPHA AFTER:   0.29434106266164339     
  Cycle:     43 Energy:      -464.873052  Gnorm:      0.483124  CPU:    0.211
 Line minimisation2
 ALPHA BEFORE:   0.29434106266164339     
step before apply   ...       0.07358527

funct1    ...    -464.87305169

step before apply   ...       0.07358527

funct1    ...    -464.93262530

  ** Opt : line minimisation
left   ...       0.00000000    -464.87305169
centre ...       0.07358527    -464.90742362
right  ...       0.14717053    -464.93262530

step before apply   ...       0.16543433

last funct1    ...    -464.95683778

left   ...       0.00000000    -464.87305169
centre ...       0.07358527    -464.90742362
right  ...       0.14717053    -464.93262530
new    ...       0.31260486    -464.95683778

__s__    ...       0.16543433

step before apply   ...       0.00646605

last funct1    ...    -464.95682349

left   ...       0.07358527    -464.90742362
centre ...       0.14717053    -464.93262530
right  ...       0.31260486    -464.95683778
new    ...       0.31907091    -464.95682349

__s__    ...       0.00646605

 ALPHA AFTER:   0.31260485975408436     
  Cycle:     44 Energy:      -464.956838  Gnorm:      0.476092  CPU:    0.216
 Line minimisation2
 ALPHA BEFORE:   0.31260485975408436     
step before apply   ...       0.07815121

funct1    ...    -464.95683778

step before apply   ...       0.07815121

funct1    ...    -465.01866188

  ** Opt : line minimisation
left   ...       0.00000000    -464.95683778
centre ...       0.07815121    -464.99297186
right  ...       0.15630243    -465.01866188

step before apply   ...       0.15315868

last funct1    ...    -465.03902346

left   ...       0.00000000    -464.95683778
centre ...       0.07815121    -464.99297186
right  ...       0.15630243    -465.01866188
new    ...       0.30946111    -465.03902346

__s__    ...       0.15315868

step before apply   ...       0.00195706

last funct1    ...    -465.03904322

left   ...       0.07815121    -464.99297186
centre ...       0.15630243    -465.01866188
right  ...       0.30946111    -465.03902346
new    ...       0.31141818    -465.03904322

__s__    ...       0.00195706

 ALPHA AFTER:   0.31141817684740442     
  Cycle:     45 Energy:      -465.039043  Gnorm:      0.617464  CPU:    0.221
 Perform trimming
 Line minimisation2
 ALPHA BEFORE:   0.31141817684740442     
step before apply   ...       0.07785454

funct1    ...    -465.03904322

step before apply   ...       0.07785454

funct1    ...    -465.12654201

  ** Opt : line minimisation
left   ...       0.00000000    -465.03904322
centre ...       0.07785454    -465.08928255
right  ...       0.15570909    -465.12654201

step before apply   ...       0.18455860

last funct1    ...    -465.16322657

left   ...       0.00000000    -465.03904322
centre ...       0.07785454    -465.08928255
right  ...       0.15570909    -465.12654201
new    ...       0.34026769    -465.16322657

__s__    ...       0.18455860

step before apply   ...       0.00092660

last funct1    ...    -465.16321697

left   ...       0.07785454    -465.08928255
centre ...       0.15570909    -465.12654201
right  ...       0.34026769    -465.16322657
new    ...       0.34119428    -465.16321697

__s__    ...       0.00092660

 ALPHA AFTER:   0.34026768502167765     
  Cycle:     46 Energy:      -465.163227  Gnorm:      0.508702  CPU:    0.226
 Line minimisation2
 ALPHA BEFORE:   0.34026768502167765     
step before apply   ...       0.08506692

funct1    ...    -465.16322657

step before apply   ...       0.08506692

funct1    ...    -465.22009402

  ** Opt : line minimisation
left   ...       0.00000000    -465.16322657
centre ...       0.08506692    -465.20308197
right  ...       0.17013384    -465.22009402

step before apply   ...       0.02081810

last funct1    ...    -465.22077123

left   ...       0.00000000    -465.16322657
centre ...       0.08506692    -465.20308197
right  ...       0.17013384    -465.22009402
new    ...       0.19095195    -465.22077123

__s__    ...       0.02081810

 ALPHA AFTER:   0.19095194688440839     
  Cycle:     47 Energy:      -465.220771  Gnorm:      0.370663  CPU:    0.229
 Line minimisation2
 ALPHA BEFORE:   0.19095194688440839     
step before apply   ...       0.04773799

funct1    ...    -465.22077123

step before apply   ...       0.04773799

funct1    ...    -465.24911430

  ** Opt : line minimisation
left   ...       0.00000000    -465.22077123
centre ...       0.04773799    -465.23534847
right  ...       0.09547597    -465.24911430

step before apply   ...       0.78601701

last funct1    ...    -465.31128637

left   ...       0.00000000    -465.22077123
centre ...       0.04773799    -465.23534847
right  ...       0.09547597    -465.24911430
new    ...       0.88149299    -465.31128637

__s__    ...       0.78601701

step before apply   ...      -0.23543750

last funct1    ...    -465.32479163

left   ...       0.04773799    -465.23534847
centre ...       0.09547597    -465.24911430
right  ...       0.88149299    -465.31128637
new    ...       0.64605549    -465.32479163

__s__    ...      -0.23543750

 ALPHA AFTER:   0.64605548883949671     
  Cycle:     48 Energy:      -465.324792  Gnorm:      0.407420  CPU:    0.234
 Line minimisation2
 ALPHA BEFORE:   0.64605548883949671     
step before apply   ...       0.16151387

funct1    ...    -465.32479163

step before apply   ...       0.16151387

funct1    ...    -465.33366030

  ** Opt : line minimisation
left   ...       0.00000000    -465.32479163
centre ...       0.16151387    -465.35796549
right  ...       0.32302774    -465.33366030

step before apply   ...      -0.14905357

last funct1    ...    -465.35812168

left   ...       0.00000000    -465.32479163
centre ...       0.16151387    -465.35796549
right  ...       0.32302774    -465.33366030
new    ...       0.17397417    -465.35812168

__s__    ...      -0.14905357

step before apply   ...      -0.00049943

last funct1    ...    -465.35812200

left   ...       0.16151387    -465.35796549
centre ...       0.17397417    -465.35812168
right  ...       0.32302774    -465.33366030
new    ...       0.17347474    -465.35812200

__s__    ...      -0.00049943

 ALPHA AFTER:   0.17347474166729604     
  Cycle:     49 Energy:      -465.358122  Gnorm:      0.368742  CPU:    0.239
 Line minimisation2
 ALPHA BEFORE:   0.17347474166729604     
step before apply   ...       0.04336869

funct1    ...    -465.35812200

step before apply   ...       0.04336869

funct1    ...    -465.37639235

  ** Opt : line minimisation
left   ...       0.00000000    -465.35812200
centre ...       0.04336869    -465.36951200
right  ...       0.08673737    -465.37639235

step before apply   ...       0.04448316

last funct1    ...    -465.37879181

left   ...       0.00000000    -465.35812200
centre ...       0.04336869    -465.36951200
right  ...       0.08673737    -465.37639235
new    ...       0.13122053    -465.37879181

__s__    ...       0.04448316

 ALPHA AFTER:   0.13122053029051947     
  Cycle:     50 Energy:      -465.378792  Gnorm:      0.299601  CPU:    0.243
 Line minimisation2
 ALPHA BEFORE:   0.13122053029051947     
step before apply   ...       0.03280513

funct1    ...    -465.37879181

step before apply   ...       0.03280513

funct1    ...    -465.39140829

  ** Opt : line minimisation
left   ...       0.00000000    -465.37879181
centre ...       0.03280513    -465.38536390
right  ...       0.06561027    -465.39140829

step before apply   ...       0.35935568

last funct1    ...    -465.42308926

left   ...       0.00000000    -465.37879181
centre ...       0.03280513    -465.38536390
right  ...       0.06561027    -465.39140829
new    ...       0.42496595    -465.42308926

__s__    ...       0.35935568

step before apply   ...       0.00021976

last funct1    ...    -465.42308921

left   ...       0.03280513    -465.38536390
centre ...       0.06561027    -465.39140829
right  ...       0.42496595    -465.42308926
new    ...       0.42518571    -465.42308921

__s__    ...       0.00021976

 ALPHA AFTER:   0.42496594856458492     
  Cycle:     51 Energy:      -465.423089  Gnorm:      0.278537  CPU:    0.248
 Line minimisation2
 ALPHA BEFORE:   0.42496594856458492     
step before apply   ...       0.10624149

funct1    ...    -465.42308926

step before apply   ...       0.10624149

funct1    ...    -465.45089129

  ** Opt : line minimisation
left   ...       0.00000000    -465.42308926
centre ...       0.10624149    -465.43956004
right  ...       0.21248297    -465.45089129

step before apply   ...       0.18111254

last funct1    ...    -465.45833794

left   ...       0.00000000    -465.42308926
centre ...       0.10624149    -465.43956004
right  ...       0.21248297    -465.45089129
new    ...       0.39359552    -465.45833794

__s__    ...       0.18111254

step before apply   ...      -0.00042055

last funct1    ...    -465.45833801

left   ...       0.10624149    -465.43956004
centre ...       0.21248297    -465.45089129
right  ...       0.39359552    -465.45833794
new    ...       0.39317497    -465.45833801

__s__    ...      -0.00042055

 ALPHA AFTER:   0.39317496589303463     
  Cycle:     52 Energy:      -465.458338  Gnorm:      0.347922  CPU:    0.252
 Perform trimming
 Line minimisation2
 ALPHA BEFORE:   0.39317496589303463     
step before apply   ...       0.09829374

funct1    ...    -465.45833801

step before apply   ...       0.09829374

funct1    ...    -465.49738289

  ** Opt : line minimisation
left   ...       0.00000000    -465.45833801
centre ...       0.09829374    -465.47954562
right  ...       0.19658748    -465.49738289

step before apply   ...       0.47106375

last funct1    ...    -465.52788232

left   ...       0.00000000    -465.45833801
centre ...       0.09829374    -465.47954562
right  ...       0.19658748    -465.49738289
new    ...       0.66765124    -465.52788232

__s__    ...       0.47106375

step before apply   ...      -0.07762163

last funct1    ...    -465.52914888

left   ...       0.09829374    -465.47954562
centre ...       0.19658748    -465.49738289
right  ...       0.66765124    -465.52788232
new    ...       0.59002961    -465.52914888

__s__    ...      -0.07762163

 ALPHA AFTER:   0.59002961156985712     
  Cycle:     53 Energy:      -465.529149  Gnorm:      0.381890  CPU:    0.257
 Line minimisation2
 ALPHA BEFORE:   0.59002961156985712     
step before apply   ...       0.14750740

funct1    ...    -465.52914888

step before apply   ...       0.14750740

funct1    ...    -465.59584360

  ** Opt : line minimisation
left   ...       0.00000000    -465.52914888
centre ...       0.14750740    -465.57057638
right  ...       0.29501481    -465.59584360

step before apply   ...       0.15687999

last funct1    ...    -465.60491311

left   ...       0.00000000    -465.52914888
centre ...       0.14750740    -465.57057638
right  ...       0.29501481    -465.59584360
new    ...       0.45189479    -465.60491311

__s__    ...       0.15687999

 ALPHA AFTER:   0.45189479194915722     
  Cycle:     54 Energy:      -465.604913  Gnorm:      0.473920  CPU:    0.261
 Perform trimming
 Line minimisation2
 ALPHA BEFORE:   0.45189479194915722     
step before apply   ...       0.11297370

funct1    ...    -465.60491311

step before apply   ...       0.11297370

funct1    ...    -465.64713466

  ** Opt : line minimisation
left   ...       0.00000000    -465.60491311
centre ...       0.11297370    -465.64073263
right  ...       0.22594740    -465.64713466

step before apply   ...      -0.03190075

last funct1    ...    -465.64821200

left   ...       0.00000000    -465.60491311
centre ...       0.11297370    -465.64073263
right  ...       0.22594740    -465.64713466
new    ...       0.19404665    -465.64821200

__s__    ...      -0.03190075

 ALPHA AFTER:   0.19404665085444125     
  Cycle:     55 Energy:      -465.648212  Gnorm:      0.379593  CPU:    0.265
 Line minimisation2
 ALPHA BEFORE:   0.19404665085444125     
step before apply   ...       0.04851166

funct1    ...    -465.64821200

step before apply   ...       0.04851166

funct1    ...    -465.67826404

  ** Opt : line minimisation
left   ...       0.00000000    -465.64821200
centre ...       0.04851166    -465.66409036
right  ...       0.09702333    -465.67826404

step before apply   ...       0.37910065

last funct1    ...    -465.74282037

left   ...       0.00000000    -465.64821200
centre ...       0.04851166    -465.66409036
right  ...       0.09702333    -465.67826404
new    ...       0.47612397    -465.74282037

__s__    ...       0.37910065

step before apply   ...       0.10916883

last funct1    ...    -465.74639736

left   ...       0.04851166    -465.66409036
centre ...       0.09702333    -465.67826404
right  ...       0.47612397    -465.74282037
new    ...       0.58529281    -465.74639736

__s__    ...       0.10916883

 ALPHA AFTER:   0.58529280594790944     
  Cycle:     56 Energy:      -465.746397  Gnorm:      0.467131  CPU:    0.270
 Perform trimming
 Line minimisation2
 ALPHA BEFORE:   0.58529280594790944     
step before apply   ...       0.14632320

funct1    ...    -465.74639736

step before apply   ...       0.14632320

funct1    ...    -465.82128526

  ** Opt : line minimisation
left   ...       0.00000000    -465.74639736
centre ...       0.14632320    -465.79539452
right  ...       0.29264640    -465.82128526

step before apply   ...       0.09079361

last funct1    ...    -465.82695499

left   ...       0.00000000    -465.74639736
centre ...       0.14632320    -465.79539452
right  ...       0.29264640    -465.82128526
new    ...       0.38344002    -465.82695499

__s__    ...       0.09079361

 ALPHA AFTER:   0.38344001747499556     
  Cycle:     57 Energy:      -465.826955  Gnorm:      0.507323  CPU:    0.274
 Line minimisation2
 ALPHA BEFORE:   0.38344001747499556     
step before apply   ...       0.09586000

funct1    ...    -465.82695499

step before apply   ...       0.09586000

funct1    ...    -465.91591831

  ** Opt : line minimisation
left   ...       0.00000000    -465.82695499
centre ...       0.09586000    -465.87874115
right  ...       0.19172001    -465.91591831

step before apply   ...       0.19601598

last funct1    ...    -465.94567881

left   ...       0.00000000    -465.82695499
centre ...       0.09586000    -465.87874115
right  ...       0.19172001    -465.91591831
new    ...       0.38773599    -465.94567881

__s__    ...       0.19601598

step before apply   ...      -0.00412144

last funct1    ...    -465.94569988

left   ...       0.09586000    -465.87874115
centre ...       0.19172001    -465.91591831
right  ...       0.38773599    -465.94567881
new    ...       0.38361455    -465.94569988

__s__    ...      -0.00412144

 ALPHA AFTER:   0.38361455104597336     
  Cycle:     58 Energy:      -465.945700  Gnorm:      0.567140  CPU:    0.279
 Perform trimming
 Line minimisation2
 ALPHA BEFORE:   0.38361455104597336     
step before apply   ...       0.09590364

funct1    ...    -465.94569988

step before apply   ...       0.09590364

funct1    ...    -466.03994877

  ** Opt : line minimisation
left   ...       0.00000000    -465.94569988
centre ...       0.09590364    -466.00390374
right  ...       0.19180728    -466.03994877

step before apply   ...       0.10805140

last funct1    ...    -466.05257081

left   ...       0.00000000    -465.94569988
centre ...       0.09590364    -466.00390374
right  ...       0.19180728    -466.03994877
new    ...       0.29985868    -466.05257081

__s__    ...       0.10805140

 ALPHA AFTER:   0.29985867857213522     
  Cycle:     59 Energy:      -466.052571  Gnorm:      0.645982  CPU:    0.283
 Line minimisation2
 ALPHA BEFORE:   0.29985867857213522     
step before apply   ...       0.07496467

funct1    ...    -466.05257081

step before apply   ...       0.07496467

funct1    ...    -466.11282802

  ** Opt : line minimisation
left   ...       0.00000000    -466.05257081
centre ...       0.07496467    -466.10415335
right  ...       0.14992934    -466.11282802

step before apply   ...      -0.02232675

last funct1    ...    -466.11472423

left   ...       0.00000000    -466.05257081
centre ...       0.07496467    -466.10415335
right  ...       0.14992934    -466.11282802
new    ...       0.12760259    -466.11472423

__s__    ...      -0.02232675

 ALPHA AFTER:   0.12760259208706914     
  Cycle:     60 Energy:      -466.114724  Gnorm:      0.423929  CPU:    0.286
 Line minimisation2
 ALPHA BEFORE:   0.12760259208706914     
step before apply   ...       0.03190065

funct1    ...    -466.11472423

step before apply   ...       0.03190065

funct1    ...    -466.13774166

  ** Opt : line minimisation
left   ...       0.00000000    -466.11472423
centre ...       0.03190065    -466.12714255
right  ...       0.06380130    -466.13774166

step before apply   ...       0.16990978

last funct1    ...    -466.16351613

left   ...       0.00000000    -466.11472423
centre ...       0.03190065    -466.12714255
right  ...       0.06380130    -466.13774166
new    ...       0.23371108    -466.16351613

__s__    ...       0.16990978

step before apply   ...      -0.00018010

last funct1    ...    -466.16351642

left   ...       0.03190065    -466.12714255
centre ...       0.06380130    -466.13774166
right  ...       0.23371108    -466.16351613
new    ...       0.23353098    -466.16351642

__s__    ...      -0.00018010

 ALPHA AFTER:   0.23353097691488295     
  Cycle:     61 Energy:      -466.163516  Gnorm:      0.322746  CPU:    0.292
 Line minimisation2
 ALPHA BEFORE:   0.23353097691488295     
step before apply   ...       0.05838274

funct1    ...    -466.16351642

step before apply   ...       0.05838274

funct1    ...    -466.18810247

  ** Opt : line minimisation
left   ...       0.00000000    -466.16351642
centre ...       0.05838274    -466.17652075
right  ...       0.11676549    -466.18810247

step before apply   ...       0.44610819

last funct1    ...    -466.22377216

left   ...       0.00000000    -466.16351642
centre ...       0.05838274    -466.17652075
right  ...       0.11676549    -466.18810247
new    ...       0.56287368    -466.22377216

__s__    ...       0.44610819

step before apply   ...      -0.05273456

last funct1    ...    -466.22432791

left   ...       0.05838274    -466.17652075
centre ...       0.11676549    -466.18810247
right  ...       0.56287368    -466.22377216
new    ...       0.51013912    -466.22432791

__s__    ...      -0.05273456

 ALPHA AFTER:   0.51013912176710341     
  Cycle:     62 Energy:      -466.224328  Gnorm:      0.339508  CPU:    0.296
 Line minimisation2
 ALPHA BEFORE:   0.51013912176710341     
step before apply   ...       0.12753478

funct1    ...    -466.22432791

step before apply   ...       0.12753478

funct1    ...    -466.25637748

  ** Opt : line minimisation
left   ...       0.00000000    -466.22432791
centre ...       0.12753478    -466.24966498
right  ...       0.25506956    -466.25637748

step before apply   ...      -0.01780237

last funct1    ...    -466.25655617

left   ...       0.00000000    -466.22432791
centre ...       0.12753478    -466.24966498
right  ...       0.25506956    -466.25637748
new    ...       0.23726719    -466.25655617

__s__    ...      -0.01780237

 ALPHA AFTER:   0.23726718853533557     
  Cycle:     63 Energy:      -466.256556  Gnorm:      0.274356  CPU:    0.300
 Line minimisation2
 ALPHA BEFORE:   0.23726718853533557     
step before apply   ...       0.05931680

funct1    ...    -466.25655617

step before apply   ...       0.05931680

funct1    ...    -466.27534374

  ** Opt : line minimisation
left   ...       0.00000000    -466.25655617
centre ...       0.05931680    -466.26667979
right  ...       0.11863359    -466.27534374

step before apply   ...       0.32241716

last funct1    ...    -466.29572549

left   ...       0.00000000    -466.25655617
centre ...       0.05931680    -466.26667979
right  ...       0.11863359    -466.27534374
new    ...       0.44105075    -466.29572549

__s__    ...       0.32241716

step before apply   ...      -0.01556927

last funct1    ...    -466.29574866

left   ...       0.05931680    -466.26667979
centre ...       0.11863359    -466.27534374
right  ...       0.44105075    -466.29572549
new    ...       0.42548148    -466.29574866

__s__    ...      -0.01556927

 ALPHA AFTER:   0.42548148174103639     
  Cycle:     64 Energy:      -466.295749  Gnorm:      0.274046  CPU:    0.305
 Line minimisation2
 ALPHA BEFORE:   0.42548148174103639     
step before apply   ...       0.10637037

funct1    ...    -466.29574866

step before apply   ...       0.10637037

funct1    ...    -466.32246122

  ** Opt : line minimisation
left   ...       0.00000000    -466.29574866
centre ...       0.10637037    -466.31198355
right  ...       0.21274074    -466.32246122

step before apply   ...       0.14040028

last funct1    ...    -466.32769962

left   ...       0.00000000    -466.29574866
centre ...       0.10637037    -466.31198355
right  ...       0.21274074    -466.32246122
new    ...       0.35314103    -466.32769962

__s__    ...       0.14040028

 ALPHA AFTER:   0.35314102568276035     
  Cycle:     65 Energy:      -466.327700  Gnorm:      0.394736  CPU:    0.309
 Perform trimming
 Line minimisation2
 ALPHA BEFORE:   0.35314102568276035     
step before apply   ...       0.08828526

funct1    ...    -466.32769962

step before apply   ...       0.08828526

funct1    ...    -466.36215023

  ** Opt : line minimisation
left   ...       0.00000000    -466.32769962
centre ...       0.08828526    -466.34727341
right  ...       0.17657051    -466.36215023

step before apply   ...       0.23548463

last funct1    ...    -466.37688602

left   ...       0.00000000    -466.32769962
centre ...       0.08828526    -466.34727341
right  ...       0.17657051    -466.36215023
new    ...       0.41205514    -466.37688602

__s__    ...       0.23548463

step before apply   ...      -0.02211323

last funct1    ...    -466.37692861

left   ...       0.08828526    -466.34727341
centre ...       0.17657051    -466.36215023
right  ...       0.41205514    -466.37688602
new    ...       0.38994191    -466.37692861

__s__    ...      -0.02211323

 ALPHA AFTER:   0.38994191286862062     
  Cycle:     66 Energy:      -466.376929  Gnorm:      0.367049  CPU:    0.314
 Line minimisation2
 ALPHA BEFORE:   0.38994191286862062     
step before apply   ...       0.09748548

funct1    ...    -466.37692861

step before apply   ...       0.09748548

funct1    ...    -466.41003843

  ** Opt : line minimisation
left   ...       0.00000000    -466.37692861
centre ...       0.09748548    -466.40046949
right  ...       0.19497096    -466.41003843

step before apply   ...       0.01802191

last funct1    ...    -466.41030651

left   ...       0.00000000    -466.37692861
centre ...       0.09748548    -466.40046949
right  ...       0.19497096    -466.41003843
new    ...       0.21299287    -466.41030651

__s__    ...       0.01802191

 ALPHA AFTER:   0.21299286821849886     
  Cycle:     67 Energy:      -466.410307  Gnorm:      0.262630  CPU:    0.318
 Line minimisation2
 ALPHA BEFORE:   0.21299286821849886     
step before apply   ...       0.05324822

funct1    ...    -466.41030651

step before apply   ...       0.05324822

funct1    ...    -466.42492028

  ** Opt : line minimisation
left   ...       0.00000000    -466.41030651
centre ...       0.05324822    -466.41821503
right  ...       0.10649643    -466.42492028

step before apply   ...       0.27010321

last funct1    ...    -466.43958812

left   ...       0.00000000    -466.41030651
centre ...       0.05324822    -466.41821503
right  ...       0.10649643    -466.42492028
new    ...       0.37659964    -466.43958812

__s__    ...       0.27010321

step before apply   ...      -0.01246366

last funct1    ...    -466.43961905

left   ...       0.05324822    -466.41821503
centre ...       0.10649643    -466.42492028
right  ...       0.37659964    -466.43958812
new    ...       0.36413598    -466.43961905

__s__    ...      -0.01246366

 ALPHA AFTER:   0.36413598490536742     
  Cycle:     68 Energy:      -466.439619  Gnorm:      0.287070  CPU:    0.323
 Line minimisation2
 ALPHA BEFORE:   0.36413598490536742     
step before apply   ...       0.09103400

funct1    ...    -466.43961905

step before apply   ...       0.09103400

funct1    ...    -466.45887410

  ** Opt : line minimisation
left   ...       0.00000000    -466.43961905
centre ...       0.09103400    -466.45301221
right  ...       0.18206799    -466.45887410

step before apply   ...       0.02533850

last funct1    ...    -466.45935424

left   ...       0.00000000    -466.43961905
centre ...       0.09103400    -466.45301221
right  ...       0.18206799    -466.45887410
new    ...       0.20740650    -466.45935424

__s__    ...       0.02533850

 ALPHA AFTER:   0.20740649567898692     
  Cycle:     69 Energy:      -466.459354  Gnorm:      0.268964  CPU:    0.327
 Line minimisation2
 ALPHA BEFORE:   0.20740649567898692     
step before apply   ...       0.05185162

funct1    ...    -466.45935424

step before apply   ...       0.05185162

funct1    ...    -466.47100629

  ** Opt : line minimisation
left   ...       0.00000000    -466.45935424
centre ...       0.05185162    -466.46647249
right  ...       0.10370325    -466.47100629

step before apply   ...       0.06503548

last funct1    ...    -466.47277607

left   ...       0.00000000    -466.45935424
centre ...       0.05185162    -466.46647249
right  ...       0.10370325    -466.47100629
new    ...       0.16873873    -466.47277607

__s__    ...       0.06503548

 ALPHA AFTER:   0.16873872952036001     
  Cycle:     70 Energy:      -466.472776  Gnorm:      0.231971  CPU:    0.331
 Line minimisation2
 ALPHA BEFORE:   0.16873872952036001     
step before apply   ...       0.04218468

funct1    ...    -466.47277607

step before apply   ...       0.04218468

funct1    ...    -466.48093608

  ** Opt : line minimisation
left   ...       0.00000000    -466.47277607
centre ...       0.04218468    -466.47732961
right  ...       0.08436936    -466.48093608

step before apply   ...       0.13954936

last funct1    ...    -466.48622799

left   ...       0.00000000    -466.47277607
centre ...       0.04218468    -466.47732961
right  ...       0.08436936    -466.48093608
new    ...       0.22391872    -466.48622799

__s__    ...       0.13954936

step before apply   ...       0.00266047

last funct1    ...    -466.48623116

left   ...       0.04218468    -466.47732961
centre ...       0.08436936    -466.48093608
right  ...       0.22391872    -466.48622799
new    ...       0.22657919    -466.48623116

__s__    ...       0.00266047

 ALPHA AFTER:   0.22657919497206347     
  Cycle:     71 Energy:      -466.486231  Gnorm:      0.204859  CPU:    0.335
 Line minimisation2
 ALPHA BEFORE:   0.22657919497206347     
step before apply   ...       0.05664480

funct1    ...    -466.48623116

step before apply   ...       0.05664480

funct1    ...    -466.49571548

  ** Opt : line minimisation
left   ...       0.00000000    -466.48623116
centre ...       0.05664480    -466.49134975
right  ...       0.11328960    -466.49571548

step before apply   ...       0.30014825

last funct1    ...    -466.50647351

left   ...       0.00000000    -466.48623116
centre ...       0.05664480    -466.49134975
right  ...       0.11328960    -466.49571548
new    ...       0.41343785    -466.50647351

__s__    ...       0.30014825

step before apply   ...       0.00501247

last funct1    ...    -466.50647115

left   ...       0.05664480    -466.49134975
centre ...       0.11328960    -466.49571548
right  ...       0.41343785    -466.50647351
new    ...       0.41845032    -466.50647115

__s__    ...       0.00501247

 ALPHA AFTER:   0.41343784793576999     
  Cycle:     72 Energy:      -466.506474  Gnorm:      0.256442  CPU:    0.340
 Perform trimming
 Line minimisation2
 ALPHA BEFORE:   0.41343784793576999     
step before apply   ...       0.10335946

funct1    ...    -466.50647351

step before apply   ...       0.10335946

funct1    ...    -466.52614566

  ** Opt : line minimisation
left   ...       0.00000000    -466.50647351
centre ...       0.10335946    -466.51775422
right  ...       0.20671892    -466.52614566

step before apply   ...       0.24851132

last funct1    ...    -466.53501936

left   ...       0.00000000    -466.50647351
centre ...       0.10335946    -466.51775422
right  ...       0.20671892    -466.52614566
[...]
left   ...       0.00000000    -471.45313267
centre ...       0.07044678    -471.45314912
right  ...       0.14089356    -471.45316386

step before apply   ...       0.57458621

last funct1    ...    -471.45322054

left   ...       0.00000000    -471.45313267
centre ...       0.07044678    -471.45314912
right  ...       0.14089356    -471.45316386
new    ...       0.71547977    -471.45322054

__s__    ...       0.57458621

 ALPHA AFTER:   0.71547977063167523     
  Cycle:    311 Energy:      -471.453221  Gnorm:      0.020699  CPU:    1.919
 Perform trimming
 Line minimisation2
 ALPHA BEFORE:   0.71547977063167523     
step before apply   ...       0.17886994

funct1    ...    -471.45322054

step before apply   ...       0.17886994

funct1    ...    -471.45332068

  ** Opt : line minimisation
left   ...       0.00000000    -471.45322054
centre ...       0.17886994    -471.45327732
right  ...       0.35773989    -471.45332068

step before apply   ...       0.48846711

last funct1    ...    -471.45337075

left   ...       0.00000000    -471.45322054
centre ...       0.17886994    -471.45327732
right  ...       0.35773989    -471.45332068
new    ...       0.84620700    -471.45337075

__s__    ...       0.48846711

 ALPHA AFTER:   0.84620699684598510     
  Cycle:    312 Energy:      -471.453371  Gnorm:      0.023110  CPU:    1.927
 Perform trimming
 Line minimisation2
 ALPHA BEFORE:   0.84620699684598510     
step before apply   ...       0.21155175

funct1    ...    -471.45337075

step before apply   ...      -0.42310350

funct1    ...    -471.45301614

  ** Opt : line minimisation
left   ...       0.00000000    -471.45337075
centre ...       0.21155175    -471.45331496
right  ...      -0.21155175    -471.45301614

step before apply   ...       0.28857073

last funct1    ...    -471.45326640

left   ...      -0.21155175    -471.45301614
centre ...       0.00000000    -471.45337075
right  ...       0.21155175    -471.45331496
new    ...       0.07701898    -471.45326640

__s__    ...       0.28857073

step before apply   ...      -0.10300340

last funct1    ...    -471.45333987

left   ...      -0.21155175    -471.45301614
centre ...       0.00000000    -471.45337075
right  ...       0.07701898    -471.45326640
new    ...      -0.02598442    -471.45333987

__s__    ...      -0.10300340

step before apply   ...       0.03705561

last funct1    ...    -471.45338282

left   ...      -0.02598442    -471.45333987
centre ...       0.00000000    -471.45337075
right  ...       0.07701898    -471.45326640
new    ...       0.01107118    -471.45338282

__s__    ...       0.03705561

step before apply   ...       0.00917082

last funct1    ...    -471.45339234

left   ...       0.00000000    -471.45337075
centre ...       0.01107118    -471.45338282
right  ...       0.07701898    -471.45326640
new    ...       0.02024200    -471.45339234

__s__    ...       0.00917082

step before apply   ...       0.00592255

last funct1    ...    -471.45339825

left   ...       0.01107118    -471.45338282
centre ...       0.02024200    -471.45339234
right  ...       0.07701898    -471.45326640
new    ...       0.02616455    -471.45339825

__s__    ...       0.00592255

step before apply   ...       0.00492786

last funct1    ...    -471.45340303

left   ...       0.02024200    -471.45339234
centre ...       0.02616455    -471.45339825
right  ...       0.07701898    -471.45326640
new    ...       0.03109242    -471.45340303

__s__    ...       0.00492786

 ALPHA AFTER:    3.1092415979607449E-002
  Cycle:    313 Energy:      -471.453403  Gnorm:      0.019233  CPU:    1.943
 Line minimisation2
 ALPHA BEFORE:    3.1092415979607449E-002
step before apply   ...       0.00777310

funct1    ...    -471.45340303

step before apply   ...       0.00777310

funct1    ...    -471.45341382

  ** Opt : line minimisation
left   ...       0.00000000    -471.45340303
centre ...       0.00777310    -471.45340855
right  ...       0.01554621    -471.45341382

step before apply   ...       0.15519118

last funct1    ...    -471.45329012

left   ...       0.00000000    -471.45340303
centre ...       0.00777310    -471.45340855
right  ...       0.01554621    -471.45341382
new    ...       0.17073738    -471.45329012

__s__    ...       0.15519118

step before apply   ...      -0.12163833

last funct1    ...    -471.45343360

left   ...       0.00777310    -471.45340855
centre ...       0.01554621    -471.45341382
right  ...       0.17073738    -471.45329012
new    ...       0.04909906    -471.45343360

__s__    ...      -0.12163833

step before apply   ...       0.00908212

last funct1    ...    -471.45343813

left   ...       0.01554621    -471.45341382
centre ...       0.04909906    -471.45343360
right  ...       0.17073738    -471.45329012
new    ...       0.05818117    -471.45343813

__s__    ...       0.00908212

 ALPHA AFTER:    5.8181173789932157E-002
  Cycle:    314 Energy:      -471.453438  Gnorm:      0.013684  CPU:    1.954
 Line minimisation2
 ALPHA BEFORE:    5.8181173789932157E-002
step before apply   ...       0.01454529

funct1    ...    -471.45343813

step before apply   ...       0.01454529

funct1    ...    -471.45327312

  ** Opt : line minimisation
left   ...       0.00000000    -471.45343813
centre ...       0.01454529    -471.45344321
right  ...       0.02909059    -471.45327312

step before apply   ...      -0.02139577

last funct1    ...    -471.45344084

left   ...       0.00000000    -471.45343813
centre ...       0.01454529    -471.45344321
right  ...       0.02909059    -471.45327312
new    ...       0.00769481    -471.45344084

__s__    ...      -0.02139577

 ALPHA AFTER:    1.4545293447483039E-002
  Cycle:    315 Energy:      -471.453443  Gnorm:      0.013183  CPU:    1.962
 Line minimisation2
 ALPHA BEFORE:    1.4545293447483039E-002
step before apply   ...       0.00363632

funct1    ...    -471.45344321

step before apply   ...       0.00363632

funct1    ...    -471.45327102

  ** Opt : line minimisation
left   ...       0.00000000    -471.45344321
centre ...       0.00363632    -471.45344462
right  ...       0.00727265    -471.45327102

step before apply   ...      -0.00542516

last funct1    ...    -471.45344393

left   ...       0.00000000    -471.45344321
centre ...       0.00363632    -471.45344462
right  ...       0.00727265    -471.45327102
new    ...       0.00184748    -471.45344393

__s__    ...      -0.00542516

 ALPHA AFTER:    3.6363233618707598E-003
  Cycle:    316 Energy:      -471.453445  Gnorm:      0.013036  CPU:    1.969
 Line minimisation2
 ALPHA BEFORE:    3.6363233618707598E-003
step before apply   ...       0.00090908

funct1    ...    -471.45344462

step before apply   ...       0.00090908

funct1    ...    -471.45344533

  ** Opt : line minimisation
left   ...       0.00000000    -471.45344462
centre ...       0.00090908    -471.45344498
right  ...       0.00181816    -471.45344533

step before apply   ...       0.32716971

last funct1    ...    -471.45333366

left   ...       0.00000000    -471.45344462
centre ...       0.00090908    -471.45344498
right  ...       0.00181816    -471.45344533
new    ...       0.32898787    -471.45333366

__s__    ...       0.32716971

step before apply   ...      -0.24041398

last funct1    ...    -471.45329946

left   ...       0.00090908    -471.45344498
centre ...       0.00181816    -471.45344533
right  ...       0.32898787    -471.45333366
new    ...       0.08857389    -471.45329946

__s__    ...      -0.24041398

step before apply   ...      -0.07900153

last funct1    ...    -471.45327330

left   ...       0.00090908    -471.45344498
centre ...       0.00181816    -471.45344533
right  ...       0.08857389    -471.45329946
new    ...       0.00957236    -471.45327330

__s__    ...      -0.07900153

step before apply   ...      -0.00813439

last funct1    ...    -471.45344518

left   ...       0.00090908    -471.45344498
centre ...       0.00181816    -471.45344533
right  ...       0.00957236    -471.45327330
new    ...       0.00143797    -471.45344518

__s__    ...      -0.00813439

 ALPHA AFTER:    1.8181616809353799E-003
  Cycle:    317 Energy:      -471.453445  Gnorm:      0.012964  CPU:    1.982
 Line minimisation2
 ALPHA BEFORE:    1.8181616809353799E-003
step before apply   ...       0.00045454

funct1    ...    -471.45344533

step before apply   ...       0.00045454

funct1    ...    -471.45327068

  ** Opt : line minimisation
left   ...       0.00000000    -471.45344533
centre ...       0.00045454    -471.45344550
right  ...       0.00090908    -471.45327068

step before apply   ...      -0.00068135

last funct1    ...    -471.45344542

left   ...       0.00000000    -471.45344533
centre ...       0.00045454    -471.45344550
right  ...       0.00090908    -471.45327068
new    ...       0.00022773    -471.45344542

__s__    ...      -0.00068135

 ALPHA AFTER:    4.5454042023384498E-004
  Cycle:    318 Energy:      -471.453446  Gnorm:      0.012947  CPU:    1.989
 Line minimisation2
 ALPHA BEFORE:    4.5454042023384498E-004
step before apply   ...       0.00011364

funct1    ...    -471.45344550

step before apply   ...       0.00011364

funct1    ...    -471.45327059

  ** Opt : line minimisation
left   ...       0.00000000    -471.45344550
centre ...       0.00011364    -471.45344555
right  ...       0.00022727    -471.45327059

step before apply   ...      -0.00017042

last funct1    ...    -471.45344553

left   ...       0.00000000    -471.45344550
centre ...       0.00011364    -471.45344555
right  ...       0.00022727    -471.45327059
new    ...       0.00005685    -471.45344553

__s__    ...      -0.00017042

 ALPHA AFTER:    1.1363510505846124E-004
  Cycle:    319 Energy:      -471.453446  Gnorm:      0.012942  CPU:    1.997
 Line minimisation2
 ALPHA BEFORE:    1.1363510505846124E-004
step before apply   ...       0.00002841

funct1    ...    -471.45344555

step before apply   ...       0.00002841

funct1    ...    -471.45344557

  ** Opt : line minimisation
left   ...       0.00000000    -471.45344555
centre ...       0.00002841    -471.45344556
right  ...       0.00005682    -471.45344557

step before apply   ...       0.30130764

last funct1    ...    -471.45333435

left   ...       0.00000000    -471.45344555
centre ...       0.00002841    -471.45344556
right  ...       0.00005682    -471.45344557
new    ...       0.30136446    -471.45333435

__s__    ...       0.30130764

step before apply   ...      -0.22415254

last funct1    ...    -471.45329701

left   ...       0.00002841    -471.45344556
centre ...       0.00005682    -471.45344557
right  ...       0.30136446    -471.45333435
new    ...       0.07721192    -471.45329701

__s__    ...      -0.22415254

step before apply   ...      -0.07070299

last funct1    ...    -471.45327305

left   ...       0.00002841    -471.45344556
centre ...       0.00005682    -471.45344557
right  ...       0.07721192    -471.45329701
new    ...       0.00650893    -471.45327305

__s__    ...      -0.07070299

step before apply   ...      -0.00642002

last funct1    ...    -471.45327058

left   ...       0.00002841    -471.45344556
centre ...       0.00005682    -471.45344557
right  ...       0.00650893    -471.45327305
new    ...       0.00008891    -471.45327058

__s__    ...      -0.00642002

 ALPHA AFTER:    5.6817552529230622E-005
  Cycle:    320 Energy:      -471.453446  Gnorm:      0.012940  CPU:    2.009
 Line minimisation2
 ALPHA BEFORE:    5.6817552529230622E-005
step before apply   ...       0.00001420

funct1    ...    -471.45344557

step before apply   ...       0.00001420

funct1    ...    -471.45327058

  ** Opt : line minimisation
left   ...       0.00000000    -471.45344557
centre ...       0.00001420    -471.45344558
right  ...       0.00002841    -471.45327058

step before apply   ...      -0.00002131

last funct1    ...    -471.45344557

left   ...       0.00000000    -471.45344557
centre ...       0.00001420    -471.45344558
right  ...       0.00002841    -471.45327058
new    ...       0.00000710    -471.45344557

__s__    ...      -0.00002131

 ALPHA AFTER:    1.4204388132307656E-005
  Cycle:    321 Energy:      -471.453446  Gnorm:      0.012939  CPU:    2.017
 Line minimisation2
 ALPHA BEFORE:    1.4204388132307656E-005
step before apply   ...       0.00000355

funct1    ...    -471.45344558

step before apply   ...       0.00000355

funct1    ...    -471.45344558

  ** Opt : line minimisation
left   ...       0.00000000    -471.45344558
centre ...       0.00000355    -471.45344558
right  ...       0.00000710    -471.45344558

step before apply   ...       0.01599961

last funct1    ...    -471.45327663

left   ...       0.00000000    -471.45344558
centre ...       0.00000355    -471.45344558
right  ...       0.00000710    -471.45344558
new    ...       0.01600671    -471.45327663

__s__    ...       0.01599961

step before apply   ...      -0.01571821

last funct1    ...    -471.45327069

left   ...       0.00000355    -471.45344558
centre ...       0.00000710    -471.45344558
right  ...       0.01600671    -471.45327663
new    ...       0.00028850    -471.45327069

__s__    ...      -0.01571821

 ALPHA AFTER:    7.1021940661538278E-006
  Cycle:    322 Energy:      -471.453446  Gnorm:      0.012939  CPU:    2.026
 Line minimisation2
 ALPHA BEFORE:    7.1021940661538278E-006
step before apply   ...       0.00000178

funct1    ...    -471.45344558

step before apply   ...       0.00000178

funct1    ...    -471.45344558

  ** Opt : line minimisation
left   ...       0.00000000    -471.45344558
centre ...       0.00000178    -471.45344558
right  ...       0.00000355    -471.45344558

step before apply   ...       0.00000355

last funct1    ...    -471.45327058

left   ...       0.00000000    -471.45344558
centre ...       0.00000178    -471.45344558
right  ...       0.00000355    -471.45344558
new    ...       0.00000710    -471.45327058

__s__    ...       0.00000355

 ALPHA AFTER:    3.5510970330769139E-006


  **** Conditions for a minimum have not been satisfied. However ****
  **** no lower point can be found - treat results with caution  ****
  **** unless gradient norm is small (less than 0.1)             ****


  Final energy =    -471.45344558 eV
  Final Gnorm  =       0.01293899

  Components of energy : 

--------------------------------------------------------------------------------
  Interatomic potentials     =          69.03275712 eV    
  Monopole - monopole (real) =        -252.65892568 eV    
  Monopole - monopole (recip)=        -287.82727702 eV    
  Monopole - monopole (total)=        -540.48620270 eV    
--------------------------------------------------------------------------------
  Total lattice energy       =        -471.45344558 eV    
--------------------------------------------------------------------------------
  Total lattice energy       =          -45488.0507 kJ/(mole unit cells)
--------------------------------------------------------------------------------

  Final fractional coordinates of atoms :

--------------------------------------------------------------------------------
   No.  Atomic        x           y          z          Radius
        Label       (Frac)      (Frac)     (Frac)       (Angs) 
--------------------------------------------------------------------------------
     1  O     c     0.500000    0.250000    0.600000    0.000000
     2  O     c     0.850012    0.317637    0.782282    0.000000
     3  O     c     0.029238    0.813879    0.850683    0.000000
     4  O     c     0.503391    0.298104    0.110168    0.000000
     5  O     c     0.673211    0.827463    0.204206    0.000000
     6  O     c     0.085856    0.564927    0.161836    0.000000
     7  O     c     0.828196    0.966288    0.629017    0.000000
     8  O     c     0.265643    0.377156    0.393543    0.000000
     9  O     c     0.252916    0.687031    0.565953    0.000000
    10  Sr    c     0.098810    0.942435    0.335469    0.000000
    11  Sr    c     0.284211    0.454875    0.912956    0.000000
    12  Sr    c     0.462673    0.977964    0.995398    0.000000
    13  Ti    c     0.271037    0.917568    0.661685    0.000000
    14  Ti    c     0.521227    0.522501    0.205649    0.000000
    15  Ti    c     0.068213    0.363700    0.587519    0.000000
--------------------------------------------------------------------------------

  Final Cartesian lattice vectors (Angstroms) :

        3.643592   -0.549425    0.749579
       -1.098850    6.282764    0.531290
        1.873947    0.664112   10.253945


  Final cell parameters and derivatives :

--------------------------------------------------------------------------------
       a            3.760252 Angstrom     dE/de1(xx)     0.014454 eV/strain
       b            6.400223 Angstrom     dE/de2(yy)     0.064106 eV/strain
       c           10.444908 Angstrom     dE/de3(zz)     0.030982 eV/strain
       alpha       83.505624 Degrees      dE/de4(yz)    -0.003395 eV/strain
       beta        68.884198 Degrees      dE/de5(xz)    -0.019239 eV/strain
       gamma      107.052477 Degrees      dE/de6(xy)    -0.003623 eV/strain
--------------------------------------------------------------------------------

  Primitive cell volume =           217.336013 Angs**3

  Density of cell =      4.206120 g/cm**3

  Non-primitive cell volume =           217.336013 Angs**3


  Final internal derivatives :

--------------------------------------------------------------------------------
   No.  Atomic          a             b             c           Radius
        Label          (eV)          (eV)          (eV)        (eV/Angs)
--------------------------------------------------------------------------------
      1 O     c       0.000000      0.000000      0.000000      0.000000
      2 O     c      -0.002327      0.016728      0.045912      0.000000
      3 O     c      -0.003579      0.030576     -0.055004      0.000000
      4 O     c      -0.064204     -0.055032      0.242412      0.000000
      5 O     c      -0.157592      0.026617     -0.020396      0.000000
      6 O     c      -0.143327      0.080155      0.134839      0.000000
      7 O     c      -0.124448      0.111214      0.032391      0.000000
      8 O     c      -0.061382     -0.030134     -0.227028      0.000000
      9 O     c       0.013642     -0.031384     -0.028431      0.000000
     10 Sr    c      -0.132277     -0.015562      0.042019      0.000000
     11 Sr    c      -0.054198     -0.067730     -0.169211      0.000000
     12 Sr    c      -0.027054      0.054916      0.151533      0.000000
     13 Ti    c       0.045269     -0.053101     -0.075781      0.000000
     14 Ti    c      -0.104928     -0.071479     -0.152887      0.000000
     15 Ti    c       0.028299     -0.077905      0.101086      0.000000
--------------------------------------------------------------------------------
  Maximum abs         0.157592      0.111214      0.242412      0.000000
--------------------------------------------------------------------------------


  Time to end of optimisation =       2.0336 seconds

 Exiting ------OPTIONS------

  Peak dynamic memory used =       0.55 MB 


  Timing analysis for GULP :

--------------------------------------------------------------------------------
  Task / Subroutine                                          Time (Seconds)
--------------------------------------------------------------------------------
  Calculation of reciprocal space energy and derivatives          0.1649
  Calculation of real space energy and derivatives                1.8378
  Global summation overhead                                       0.0009
--------------------------------------------------------------------------------
  Total CPU time                                                  2.0336
--------------------------------------------------------------------------------


  Job Finished at 14:47.53  3rd February   2020                               

