********************************************************************************
*                       GENERAL UTILITY LATTICE PROGRAM                        *
*                                 Julian Gale                                  *
*                       Curtin Institute for Computation                       *
*                           Department of Chemistry                            *
*                    Curtin University, Western Australia                      *
********************************************************************************
* Version = 5.1.1 * Last modified =  25th August 2019                          *
********************************************************************************
*  optimise     - perform optimisation run                                     *
*  conp         - constant pressure calculation                                *
*  nosymmetry   - turn off symmetry after initial structure generation         *
*  full         - generate full unit cell when symmetry is removed             *
*  conjugate    - use conjugate gradients minimiser                            *
********************************************************************************
* ASE calculation                                                              *
********************************************************************************


  Job Started  at 13:21.24  3rd February   2020                               

  Number of CPUs =     1


  Total number of configurations input =      1

********************************************************************************
*  Input for Configuration =   1                                               *
********************************************************************************

  Formula = O9Sr3Ti3                                                    

  Number of irreducible atoms/shells =      15


  Total number atoms/shells =      15

  Dimensionality = 3               :  Bulk   



  Cartesian lattice vectors (Angstroms) :

        4.000000    0.000000    0.000000
        0.000000    8.000000    0.000000
        0.000000    0.000000   10.000000

  Cell parameters (Angstroms/Degrees):

  a =       4.0000    alpha =  90.0000
  b =       8.0000    beta  =  90.0000
  c =      10.0000    gamma =  90.0000

  Initial cell volume =         320.000000 Angs**3

  Temperature of configuration =  0.000     K 

  Pressure of configuration =         0.000 GPa 

  Fractional coordinates of asymmetric unit :

--------------------------------------------------------------------------------
   No.  Atomic       x           y          z         Charge      Occupancy
        Label      (Frac)      (Frac)     (Frac)        (e)         (Frac)  
--------------------------------------------------------------------------------
      1 O     c    0.500000    0.250000    0.600000    -2.00000    1.000000    
      2 O     c    0.000000 *  0.750000 *  0.800000 *  -2.00000    1.000000    
      3 O     c    0.500000 *  0.500000 *  0.800000 *  -2.00000    1.000000    
      4 O     c    0.500000 *  0.250000 *  0.000000 *  -2.00000    1.000000    
      5 O     c    0.500000 *  0.500000 *  0.200000 *  -2.00000    1.000000    
      6 O     c    0.000000 *  0.500000 *  0.200000 *  -2.00000    1.000000    
      7 O     c    0.000000 *  0.250000 *  0.600000 *  -2.00000    1.000000    
      8 O     c    0.500000 *  0.250000 *  0.400000 *  -2.00000    1.000000    
      9 O     c    0.500000 *  0.500000 *  0.400000 *  -2.00000    1.000000    
     10 Sr    c    0.250000 *  0.875000 *  0.500000 *   2.00000    1.000000    
     11 Sr    c    0.250000 *  0.125000 *  0.900000 *   2.00000    1.000000    
     12 Sr    c    0.250000 *  0.625000 *  0.900000 *   2.00000    1.000000    
     13 Ti    c    0.750000 *  0.875000 *  0.700000 *   4.00000    1.000000    
     14 Ti    c    0.750000 *  0.375000 *  0.100000 *   4.00000    1.000000    
     15 Ti    c    0.250000 *  0.125000 *  0.500000 *   4.00000    1.000000    
--------------------------------------------------------------------------------



********************************************************************************
*  General input information                                                   *
********************************************************************************

  Species output for all configurations : 

--------------------------------------------------------------------------------
  Species    Type    Atomic    Atomic    Charge       Radii (Angs)     Library
                     Number     Mass       (e)     Cova   Ionic  VDW   Symbol
--------------------------------------------------------------------------------
    O        Core        8      16.00  -2.000000   0.730  0.000  1.360          
    Sr       Core       38      87.62   2.000000   1.120  0.000  1.670          
    Ti       Core       22      47.88   4.000000   1.470  0.000  2.190          
--------------------------------------------------------------------------------


  Lattice summation method               =    Ewald          (3-D)
                                         =    Parry          (2-D)
                                         =    Saunders et al (1-D)
  Accuracy factor for lattice sums       =   12.000


  Time limit = Infinity

  Maximum range for interatomic potentials =    100000.000000 Angstroms

  General interatomic potentials :

--------------------------------------------------------------------------------
Atom  Types   Potential      Parameter       Value         Units   Cutoffs(Ang)
  1     2                                                            Min /  Max 
--------------------------------------------------------------------------------
O    c Sr   c Buckingham    Buckingham A     1952.3900    eV        0.000 10.000
                            Buckingham rho  0.33685000    Ang       
                            Buckingham C     19.220000    eV*Ang^6  
--------------------------------------------------------------------------------
O    c Ti   c Buckingham    Buckingham A     4590.7279    eV        0.000 10.000
                            Buckingham rho  0.26100000    Ang       
                            Buckingham C     0.0000000    eV*Ang^6  
--------------------------------------------------------------------------------
O    c O    c Buckingham    Buckingham A     1388.7700    eV        0.000 10.000
                            Buckingham rho  0.36262000    Ang       
                            Buckingham C     175.00000    eV*Ang^6  
--------------------------------------------------------------------------------
 Calling ------OPTIONS------

********************************************************************************
*  Output for configuration   1                                                *
********************************************************************************


  Components of energy : 

--------------------------------------------------------------------------------
  Interatomic potentials     =          97.01435912 eV    
  Monopole - monopole (real) =        -115.35329340 eV    
  Monopole - monopole (recip)=        -197.84378280 eV    
  Monopole - monopole (total)=        -313.19707620 eV    
--------------------------------------------------------------------------------
  Total lattice energy       =        -216.18271708 eV    
--------------------------------------------------------------------------------
  Total lattice energy       =          -20858.3275 kJ/(mole unit cells)
--------------------------------------------------------------------------------


  Number of variables =       48

  Maximum number of calculations  =          1000
  Maximum Hessian update interval =            10
  Maximum step size               =   1.000000000
  Maximum parameter tolerance     =   0.000010000
  Maximum function  tolerance     =   0.000010000
  Maximum gradient  tolerance     =   0.001000000
  Maximum gradient  component     =   0.010000000

  Cell parameters to be optimised using strains

  Conjugate gradient optimiser to be used

  Lower half triangular hessian to be used

  Start of bulk optimisation :

  Cycle:      0 Energy:      -216.182717  Gnorm:     26.153688  CPU:    0.016
 Perform trimming
 Line minimisation2
 ALPHA BEFORE:    1.0000000000000000     
  ** Opt : line minimisation
left   ...       0.00000000    -216.18271708
centre ...       0.25000000    -273.30560253
right  ...       0.50000000    -308.48502498

left   ...       0.00000000    -216.18271708
centre ...       0.25000000    -273.30560253
right  ...       0.50000000    -308.48502498
new    ...       0.77579616    -328.26969713

s    ...       0.27579616

left   ...       0.25000000    -273.30560253
centre ...       0.50000000    -308.48502498
right  ...       0.77579616    -328.26969713
new    ...       0.91129767    -332.98357959

s    ...       0.13550152

left   ...       0.50000000    -308.48502498
centre ...       0.77579616    -328.26969713
right  ...       0.91129767    -332.98357959
new    ...       1.03717483    -335.07537576

s    ...       0.12587716

left   ...       0.77579616    -328.26969713
centre ...       0.91129767    -332.98357959
right  ...       1.03717483    -335.07537576
new    ...       1.09375665    -335.36627627

s    ...       0.05658182

 ALPHA AFTER:    1.0937566518055146     
FUNCT    ...      -0.00899470       0.80415162

FUNCT    ...       0.76456002       0.50848596

FUNCT    ...       0.49998666       0.79842275

FUNCT    ...       0.50924392       0.24885567

FUNCT    ...       0.01344450       0.50126651

FUNCT    ...       0.50292750       0.13546147

FUNCT    ...      -0.00126651       0.49846633

FUNCT    ...       0.15847397       0.00152345

FUNCT    ...       0.20110645       0.61692202

FUNCT    ...       0.49873045       0.17904860

FUNCT    ...       0.37428311       0.49982949

FUNCT    ...       0.54084515       0.43928875

FUNCT    ...       0.25027491       0.83367306

FUNCT    ...       0.46480093       0.24224732

FUNCT    ...       0.12873157       0.88628280

FUNCT    ...       0.25024188       0.60614019

FUNCT    ...       0.94610535       0.75082804

FUNCT    ...       0.84622548       0.72703183

FUNCT    ...       0.74689871       0.40420753

FUNCT    ...       0.16413112       0.25221400

FUNCT    ...       0.25893231       0.47085063

FUNCT    ...       1.05520257       0.97278334

FUNCT    ...       1.02399009       0.99426219

FUNCT    ...       1.00236626       0.99675921

FUNCT    ...    -335.36627627
  Cycle:      1 Energy:      -335.366276  Gnorm:     30.937696  CPU:    0.029
 Perform trimming
 Line minimisation2
 ALPHA BEFORE:    1.0937566518055146     
  ** Opt : line minimisation
left   ...       0.00000000    -335.36627627
centre ...       0.27343916    -382.69078566
right  ...       0.54687833    -368.36733129

left   ...       0.00000000    -335.36627627
centre ...       0.27343916    -382.69078566
right  ...       0.54687833    -368.36733129
new    ...       0.34662715    -380.85510697

s    ...      -0.20025117

left   ...       0.00000000    -335.36627627
centre ...       0.27343916    -382.69078566
right  ...       0.34662715    -380.85510697
new    ...       0.28809559    -382.54073890

s    ...      -0.05853156

left   ...       0.00000000    -335.36627627
centre ...       0.27343916    -382.69078566
right  ...       0.28809559    -382.54073890
new    ...       0.27272246    -382.69476122

s    ...      -0.01537312

 ALPHA AFTER:   0.27272246406494022     
FUNCT    ...       0.02353254       0.79226573

FUNCT    ...       0.79199672       0.50987795

FUNCT    ...       0.50521316       0.79839218

FUNCT    ...       0.51189951       0.24565857

FUNCT    ...       0.01869477       0.49064650

FUNCT    ...       0.52104682       0.12320594

FUNCT    ...       0.01249133       0.51560665

FUNCT    ...       0.15473856       0.00273871

FUNCT    ...       0.19011781       0.61564578

FUNCT    ...       0.50009891       0.16818967

FUNCT    ...       0.36259516       0.49915865

FUNCT    ...       0.54624410       0.44188917

FUNCT    ...       0.25045713       0.82832123

FUNCT    ...       0.45838708       0.24072453

FUNCT    ...       0.13307683       0.88193993

FUNCT    ...       0.24960551       0.60170991

FUNCT    ...       0.95212927       0.71771131

FUNCT    ...       0.86060173       0.69806416

FUNCT    ...       0.74182276       0.37452110

FUNCT    ...       0.17662205       0.25121497

FUNCT    ...       0.27865844       0.48225434

FUNCT    ...       1.07903435       0.97096818

FUNCT    ...       1.02901793       0.99381937

FUNCT    ...       1.00620072       0.99303293

FUNCT    ...    -382.69476122
  Cycle:      2 Energy:      -382.694761  Gnorm:      7.573414  CPU:    0.036
 Line minimisation2
 ALPHA BEFORE:   0.27272246406494022     
  ** Opt : line minimisation
left   ...       0.00000000    -382.69476122
centre ...       0.06818062    -390.46325458
right  ...       0.13636123    -395.83270063

left   ...       0.00000000    -382.69476122
centre ...       0.06818062    -390.46325458
right  ...       0.13636123    -395.83270063
new    ...       0.25486989    -399.59975836

s    ...       0.11850866

left   ...       0.06818062    -390.46325458
centre ...       0.13636123    -395.83270063
right  ...       0.25486989    -399.59975836
new    ...       0.25879232    -399.61053818

s    ...       0.00392243

 ALPHA AFTER:   0.25879232074921438     
FUNCT    ...       0.02417575       0.81624744

FUNCT    ...       0.77062998       0.51268917

FUNCT    ...       0.52159098       0.78733132

FUNCT    ...       0.52029264       0.22979395

FUNCT    ...       0.04122915       0.49626681

FUNCT    ...       0.53013813       0.13339644

FUNCT    ...       0.01174220       0.51658868

FUNCT    ...       0.17069471       0.00694144

FUNCT    ...       0.15809819       0.60143368

FUNCT    ...       0.49673233       0.16516131

FUNCT    ...       0.35406882       0.49575186

FUNCT    ...       0.55155469       0.44515776

FUNCT    ...       0.25079282       0.81960046

FUNCT    ...       0.43443920       0.23744556

FUNCT    ...       0.14874182       0.87459973

FUNCT    ...       0.24629630       0.59408466

FUNCT    ...       0.95906880       0.71808767

FUNCT    ...       0.84946992       0.72388698

FUNCT    ...       0.72830413       0.37722269

FUNCT    ...       0.15223587       0.25554871

FUNCT    ...       0.30099038       0.50658850

FUNCT    ...       1.10015079       0.95076607

FUNCT    ...       1.03087961       1.00238638

FUNCT    ...       1.00943961       0.98821722

FUNCT    ...    -399.61053818
  Cycle:      3 Energy:      -399.610538  Gnorm:      7.262433  CPU:    0.041
 Line minimisation2
 ALPHA BEFORE:   0.25879232074921438     
  ** Opt : line minimisation
left   ...       0.00000000    -399.61053818
centre ...       0.06469808    -406.52160758
right  ...       0.12939616    -411.54042926

left   ...       0.00000000    -399.61053818
centre ...       0.06469808    -406.52160758
right  ...       0.12939616    -411.54042926
new    ...       0.26864628    -417.06703513

s    ...       0.13925012

left   ...       0.06469808    -406.52160758
centre ...       0.12939616    -411.54042926
right  ...       0.26864628    -417.06703513
new    ...       0.30585038    -417.55446414

s    ...       0.03720410

 ALPHA AFTER:   0.30585038211981608     
FUNCT    ...       0.05463614       0.84639073

FUNCT    ...       0.77190294       0.51837061

FUNCT    ...       0.56086248       0.77830571

FUNCT    ...       0.53670357       0.20386106

FUNCT    ...       0.06103446       0.50147733

FUNCT    ...       0.56435539       0.12688868

FUNCT    ...       0.00866842       0.51463741

FUNCT    ...       0.18801026       0.01508244

FUNCT    ...       0.09964564       0.58931708

FUNCT    ...       0.48794862       0.16235672

FUNCT    ...       0.34456716       0.48672856

FUNCT    ...       0.55961114       0.46458738

FUNCT    ...       0.25145862       0.80811019

FUNCT    ...       0.38615070       0.23279658

FUNCT    ...       0.17988248       0.86062922

FUNCT    ...       0.23976377       0.58313221

FUNCT    ...       0.97405886       0.68944989

FUNCT    ...       0.83207445       0.71699734

FUNCT    ...       0.70756698       0.36305938

FUNCT    ...       0.15158890       0.25408243

FUNCT    ...       0.33971919       0.48781067

FUNCT    ...       1.15045943       0.91470707

FUNCT    ...       1.03453263       1.01626115

FUNCT    ...       1.02436663       0.97030421

FUNCT    ...    -417.55446414
  Cycle:      4 Energy:      -417.554464  Gnorm:      5.368166  CPU:    0.045
 Line minimisation2
 ALPHA BEFORE:   0.30585038211981608     
  ** Opt : line minimisation
left   ...       0.00000000    -417.55446414
centre ...       0.07646260    -422.34999888
right  ...       0.15292519    -426.03916300

left   ...       0.00000000    -417.55446414
centre ...       0.07646260    -422.34999888
right  ...       0.15292519    -426.03916300
new    ...       0.36965643    -430.82863908

s    ...       0.21673124

left   ...       0.07646260    -422.34999888
centre ...       0.15292519    -426.03916300
right  ...       0.36965643    -430.82863908
new    ...       0.38517953    -430.85878219

s    ...       0.01552310

 ALPHA AFTER:   0.38517952923918297     
FUNCT    ...       0.06372830       0.85897122

FUNCT    ...       0.78466025       0.52637642

FUNCT    ...       0.60993846       0.78277676

FUNCT    ...       0.54776580       0.19019828

FUNCT    ...       0.04572328       0.51854719

FUNCT    ...       0.57461118       0.11735112

FUNCT    ...      -0.00239977       0.49173988

FUNCT    ...       0.19612117       0.01910335

FUNCT    ...       0.06492522       0.57731980

FUNCT    ...       0.47803892       0.17508951

FUNCT    ...       0.33065498       0.47243562

FUNCT    ...       0.56286437       0.47633833

FUNCT    ...       0.25229586       0.80999746

FUNCT    ...       0.34869610       0.23157388

FUNCT    ...       0.19703336       0.83740330

FUNCT    ...       0.23066654       0.58745115

FUNCT    ...       0.97173646       0.68051460

FUNCT    ...       0.80922967       0.69705161

FUNCT    ...       0.68929148       0.37421098

FUNCT    ...       0.20120661       0.27328975

FUNCT    ...       0.32777490       0.49383478

FUNCT    ...       1.16791561       0.87093368

FUNCT    ...       1.02880966       1.02920106

FUNCT    ...       1.03592988       0.94952474

FUNCT    ...    -430.85878219
  Cycle:      5 Energy:      -430.858782  Gnorm:      4.851140  CPU:    0.048
 Line minimisation2
 ALPHA BEFORE:   0.38517952923918297     
  ** Opt : line minimisation
left   ...       0.00000000    -430.85878219
centre ...       0.09629488    -435.18516970
right  ...       0.19258976    -437.14362094

left   ...       0.00000000    -430.85878219
centre ...       0.09629488    -435.18516970
right  ...       0.19258976    -437.14362094
new    ...       0.22408502    -437.15478790

s    ...       0.03149526

 ALPHA AFTER:   0.22408502110484219     
FUNCT    ...       0.06195226       0.86117404

FUNCT    ...       0.78698598       0.53240209

FUNCT    ...       0.63744339       0.77736293

FUNCT    ...       0.55553555       0.18954907

FUNCT    ...       0.04312956       0.53253919

FUNCT    ...       0.57683869       0.12741275

FUNCT    ...      -0.00271688       0.47937349

FUNCT    ...       0.21542600       0.01960575

FUNCT    ...       0.04878322       0.55990737

FUNCT    ...       0.47271897       0.19454900

FUNCT    ...       0.32579992       0.46111058

FUNCT    ...       0.56604362       0.47634974

FUNCT    ...       0.25327125       0.81435021

FUNCT    ...       0.32392420       0.23211795

FUNCT    ...       0.20247821       0.82663500

FUNCT    ...       0.22287515       0.59413357

FUNCT    ...       0.96791360       0.68344475

FUNCT    ...       0.80209041       0.69802366

FUNCT    ...       0.66553740       0.36919546

FUNCT    ...       0.20127492       0.28693855

FUNCT    ...       0.30815559       0.49800022

FUNCT    ...       1.17136831       0.83869307

FUNCT    ...       1.02090877       1.03569093

FUNCT    ...       1.04303527       0.93277681

FUNCT    ...    -437.15478790
  Cycle:      6 Energy:      -437.154788  Gnorm:      6.439556  CPU:    0.051
 Perform trimming
 Line minimisation2
 ALPHA BEFORE:   0.22408502110484219     
  ** Opt : line minimisation
left   ...       0.00000000    -437.15478790
centre ...       0.05602126    -441.03504025
right  ...       0.11204251    -443.82138687

left   ...       0.00000000    -437.15478790
centre ...       0.05602126    -441.03504025
right  ...       0.11204251    -443.82138687
new    ...       0.22672666    -445.63324260

s    ...       0.11468415

left   ...       0.05602126    -441.03504025
centre ...       0.11204251    -443.82138687
right  ...       0.22672666    -445.63324260
new    ...       0.20911681    -445.71396624

s    ...      -0.01760985

 ALPHA AFTER:   0.20911681145859148     
FUNCT    ...       0.05465589       0.86206679

FUNCT    ...       0.78813597       0.53300305

FUNCT    ...       0.65114397       0.79003674

FUNCT    ...       0.56667858       0.19316645

FUNCT    ...       0.04242963       0.55053092

FUNCT    ...       0.58246930       0.14035978

FUNCT    ...      -0.00130008       0.46177429

FUNCT    ...       0.24637689       0.01965356

FUNCT    ...       0.03078708       0.53299043

FUNCT    ...       0.46515967       0.22429111

FUNCT    ...       0.32417485       0.44358777

FUNCT    ...       0.57118087       0.47487734

FUNCT    ...       0.25496224       0.82000347

FUNCT    ...       0.29035621       0.23384800

FUNCT    ...       0.20656724       0.81511389

FUNCT    ...       0.21191154       0.60598970

FUNCT    ...       0.96683291       0.70154851

FUNCT    ...       0.81720268       0.67701511

FUNCT    ...       0.63027935       0.35618466

FUNCT    ...       0.19084071       0.29898913

FUNCT    ...       0.28105358       0.47786674

FUNCT    ...       1.17399035       0.79611394

FUNCT    ...       1.01101464       1.03994550

FUNCT    ...       1.05276086       0.90746615

FUNCT    ...    -445.71396624
  Cycle:      7 Energy:      -445.713966  Gnorm:      3.374507  CPU:    0.055
 Line minimisation2
 ALPHA BEFORE:   0.20911681145859148     
  ** Opt : line minimisation
left   ...       0.00000000    -445.71396624
centre ...       0.05227920    -446.89741178
right  ...       0.10455841    -447.72649776

left   ...       0.00000000    -445.71396624
centre ...       0.05227920    -446.89741178
right  ...       0.10455841    -447.72649776
new    ...       0.20073512    -448.42792571

s    ...       0.09617671

left   ...       0.05227920    -446.89741178
centre ...       0.10455841    -447.72649776
right  ...       0.20073512    -448.42792571
new    ...       0.21584691    -448.44935107

s    ...       0.01511179

 ALPHA AFTER:   0.21584690839858697     
FUNCT    ...       0.04857662       0.86332640

FUNCT    ...       0.78151324       0.53267556

FUNCT    ...       0.64734130       0.79099878

FUNCT    ...       0.56764372       0.19624400

FUNCT    ...       0.04612684       0.54725292

FUNCT    ...       0.59780719       0.12900800

FUNCT    ...      -0.00350663       0.45612556

FUNCT    ...       0.24332794       0.01821813

FUNCT    ...       0.03063661       0.53203235

FUNCT    ...       0.46228069       0.21669509

FUNCT    ...       0.32905562       0.43976538

FUNCT    ...       0.57503088       0.47614471

FUNCT    ...       0.25536819       0.81725478

FUNCT    ...       0.29104578       0.23550124

FUNCT    ...       0.20612285       0.81621217

FUNCT    ...       0.21049015       0.61033830

FUNCT    ...       0.97061353       0.71087609

FUNCT    ...       0.82100004       0.66838750

FUNCT    ...       0.63674907       0.34985433

FUNCT    ...       0.18852765       0.29507323

FUNCT    ...       0.28606404       0.46605170

FUNCT    ...       1.17029024       0.79384413

FUNCT    ...       1.01186368       1.03829476

FUNCT    ...       1.05161997       0.90015027

FUNCT    ...    -448.44935107
  Cycle:      8 Energy:      -448.449351  Gnorm:      3.417856  CPU:    0.060
 Line minimisation2
 ALPHA BEFORE:   0.21584690839858697     
  ** Opt : line minimisation
left   ...       0.00000000    -448.44935107
centre ...       0.05396173    -449.71685894
right  ...       0.10792345    -450.55566728

left   ...       0.00000000    -448.44935107
centre ...       0.05396173    -449.71685894
right  ...       0.10792345    -450.55566728
new    ...       0.18652598    -451.07945587

s    ...       0.07860252

left   ...       0.05396173    -449.71685894
centre ...       0.10792345    -450.55566728
right  ...       0.18652598    -451.07945587
new    ...       0.19696024    -451.09000986

s    ...       0.01043426

 ALPHA AFTER:   0.19696024096120227     
FUNCT    ...       0.03820573       0.86570413

FUNCT    ...       0.77016087       0.53335244

FUNCT    ...       0.64383600       0.78571156

FUNCT    ...       0.56891048       0.20039366

FUNCT    ...       0.05283121       0.54479655

FUNCT    ...       0.61240473       0.12010047

FUNCT    ...      -0.00724985       0.44633627

FUNCT    ...       0.23865437       0.01467888

FUNCT    ...       0.03028932       0.52782468

FUNCT    ...       0.46068709       0.20371150

FUNCT    ...       0.32035223       0.43367835

FUNCT    ...       0.58179674       0.47440157

FUNCT    ...       0.25607321       0.81239287

FUNCT    ...       0.29317506       0.23859997

FUNCT    ...       0.20553774       0.81671852

FUNCT    ...       0.20800201       0.61807761

FUNCT    ...       0.97329251       0.72510178

FUNCT    ...       0.82383036       0.66282754

FUNCT    ...       0.64519396       0.34926484

FUNCT    ...       0.18140969       0.28921070

FUNCT    ...       0.29598294       0.47583008

FUNCT    ...       1.16221887       0.78770464

FUNCT    ...       1.01198022       1.03837907

FUNCT    ...       1.04796140       0.88830805

FUNCT    ...    -451.09000986
  Cycle:      9 Energy:      -451.090010  Gnorm:      2.446693  CPU:    0.065
 Line minimisation2
 ALPHA BEFORE:   0.19696024096120227     
  ** Opt : line minimisation
left   ...       0.00000000    -451.09000986
centre ...       0.04924006    -451.66378286
right  ...       0.09848012    -452.02417273

left   ...       0.00000000    -451.09000986
centre ...       0.04924006    -451.66378286
right  ...       0.09848012    -452.02417273
new    ...       0.15702326    -452.20910039

s    ...       0.05854314

 ALPHA AFTER:   0.15702326322252885     
FUNCT    ...       0.03565378       0.86693806

FUNCT    ...       0.76825661       0.53363800

FUNCT    ...       0.64419576       0.78053985

FUNCT    ...       0.56866734       0.19808340

FUNCT    ...       0.04412568       0.54680715

FUNCT    ...       0.61035309       0.12362188

FUNCT    ...      -0.00778202       0.44476512

FUNCT    ...       0.23780102       0.01270110

FUNCT    ...       0.03073241       0.52739913

FUNCT    ...       0.45928981       0.20418855

FUNCT    ...       0.32329112       0.43197546

FUNCT    ...       0.58345831       0.47390178

FUNCT    ...       0.25634511       0.81176815

FUNCT    ...       0.29392197       0.23998219

FUNCT    ...       0.20556827       0.81732034

FUNCT    ...       0.20683619       0.62108333

FUNCT    ...       0.97119518       0.72828637

FUNCT    ...       0.82286500       0.66323769

FUNCT    ...       0.64497285       0.35564880

FUNCT    ...       0.18752652       0.28909396

FUNCT    ...       0.29468743       0.47013261

FUNCT    ...       1.15921242       0.78427030

FUNCT    ...       1.01178751       1.04011366

FUNCT    ...       1.04807897       0.88522172

FUNCT    ...    -452.20910039
  Cycle:     10 Energy:      -452.209100  Gnorm:      1.797666  CPU:    0.068
 Line minimisation2
 ALPHA BEFORE:   0.15702326322252885     
  ** Opt : line minimisation
left   ...       0.00000000    -452.20910039
centre ...       0.03925582    -452.50797822
right  ...       0.07851163    -452.76492388

left   ...       0.00000000    -452.20910039
centre ...       0.03925582    -452.50797822
right  ...       0.07851163    -452.76492388
new    ...       0.29942969    -453.37222275

s    ...       0.22091806

left   ...       0.03925582    -452.50797822
centre ...       0.07851163    -452.76492388
right  ...       0.29942969    -453.37222275
new    ...       0.28316581    -453.37912928

s    ...      -0.01626388

 ALPHA AFTER:   0.28316581472184293     
FUNCT    ...       0.02993488       0.86970163

FUNCT    ...       0.76622304       0.53337007

FUNCT    ...       0.64414237       0.77186598

FUNCT    ...       0.56913438       0.19894414

FUNCT    ...       0.04013645       0.55106403

FUNCT    ...       0.60656628       0.13242985

FUNCT    ...      -0.00724617       0.44088147

FUNCT    ...       0.23891250       0.00744875

FUNCT    ...       0.03162326       0.52325164

FUNCT    ...       0.45640476       0.20453176

FUNCT    ...       0.32448066       0.42756350

FUNCT    ...       0.58706775       0.46888648

FUNCT    ...       0.25693767       0.81047932

FUNCT    ...       0.29611205       0.24377953

FUNCT    ...       0.20587666       0.81810233

FUNCT    ...       0.20440292       0.62848317

FUNCT    ...       0.96532621       0.73636648

FUNCT    ...       0.82218082       0.65991487

FUNCT    ...       0.64253408       0.36364004

FUNCT    ...       0.18047263       0.28916280

FUNCT    ...       0.29186991       0.47378072

FUNCT    ...       1.15216201       0.77564666

FUNCT    ...       1.00972074       1.04329203

FUNCT    ...       1.04701010       0.87721454

FUNCT    ...    -453.37912928
  Cycle:     11 Energy:      -453.379129  Gnorm:      2.000249  CPU:    0.073
 Perform trimming
 Line minimisation2
 ALPHA BEFORE:   0.28316581472184293     
  ** Opt : line minimisation
left   ...       0.00000000    -453.37912928
centre ...       0.07079145    -453.93764678
right  ...       0.14158291    -454.38609885

left   ...       0.00000000    -453.37912928
centre ...       0.07079145    -453.93764678
right  ...       0.14158291    -454.38609885
new    ...       0.39462083    -454.95940672

s    ...       0.25303792

left   ...       0.07079145    -453.93764678
centre ...       0.14158291    -454.38609885
right  ...       0.39462083    -454.95940672
new    ...       0.35825619    -454.98653664

s    ...      -0.03636464

 ALPHA AFTER:   0.35825618834699235     
FUNCT    ...       0.01906316       0.87603994

FUNCT    ...       0.76758549       0.53049065

FUNCT    ...       0.64158715       0.76056715

FUNCT    ...       0.57035625       0.20401279

FUNCT    ...       0.03376217       0.55646976

FUNCT    ...       0.61003627       0.13735235

FUNCT    ...      -0.00566024       0.43218748

FUNCT    ...       0.23727380      -0.00469364

FUNCT    ...       0.03237524       0.51768373

FUNCT    ...       0.45098339       0.20519985

FUNCT    ...       0.31874993       0.41754844

FUNCT    ...       0.59464938       0.46182310

FUNCT    ...       0.25797192       0.80812443

FUNCT    ...       0.30191311       0.25310799

FUNCT    ...       0.20694528       0.81943529

FUNCT    ...       0.19996609       0.64584464

FUNCT    ...       0.95467529       0.75419425

FUNCT    ...       0.82376417       0.63750757

FUNCT    ...       0.63853666       0.36588971

FUNCT    ...       0.18002702       0.28757414

FUNCT    ...       0.28730114       0.47167665

FUNCT    ...       1.13838244       0.75941488

FUNCT    ...       1.00594348       1.04925292

FUNCT    ...       1.04537779       0.85755804

FUNCT    ...    -454.98653664
  Cycle:     12 Energy:      -454.986537  Gnorm:      2.217319  CPU:    0.078
 Line minimisation2
 ALPHA BEFORE:   0.35825618834699235     
  ** Opt : line minimisation
left   ...       0.00000000    -454.98653664
centre ...       0.08956405    -455.79288337
right  ...       0.17912809    -456.23315808

left   ...       0.00000000    -454.98653664
centre ...       0.08956405    -455.79288337
right  ...       0.17912809    -456.23315808
new    ...       0.24206472    -456.34190354

s    ...       0.06293663

 ALPHA AFTER:   0.24206472071906060     
FUNCT    ...       0.01097749       0.88089730

FUNCT    ...       0.76426033       0.52755035

FUNCT    ...       0.64053151       0.74781869

FUNCT    ...       0.57131825       0.20966855

FUNCT    ...       0.03139593       0.55739665

FUNCT    ...       0.62432385       0.13186116

FUNCT    ...      -0.00347461       0.42558133

FUNCT    ...       0.23718160      -0.01395331

FUNCT    ...       0.03057773       0.51305178

FUNCT    ...       0.44665029       0.20347955

FUNCT    ...       0.31857767       0.41097121

FUNCT    ...       0.59924579       0.46341720

FUNCT    ...       0.25790355       0.80696247

FUNCT    ...       0.30028318       0.26142714

FUNCT    ...       0.20884184       0.82240811

FUNCT    ...       0.19737527       0.65980987

FUNCT    ...       0.94847971       0.76591739

FUNCT    ...       0.82421546       0.63127036

FUNCT    ...       0.63721142       0.35651815

FUNCT    ...       0.17847347       0.28512044

FUNCT    ...       0.28715687       0.46348787

FUNCT    ...       1.12971555       0.75059242

FUNCT    ...       1.00363999       1.05273384

FUNCT    ...       1.04394092       0.84088309

FUNCT    ...    -456.34190354
  Cycle:     13 Energy:      -456.341904  Gnorm:      1.713868  CPU:    0.082
 Line minimisation2
 ALPHA BEFORE:   0.24206472071906060     
  ** Opt : line minimisation
left   ...       0.00000000    -456.34190354
centre ...       0.06051618    -456.68005099
right  ...       0.12103236    -456.85233913

left   ...       0.00000000    -456.34190354
centre ...       0.06051618    -456.68005099
right  ...       0.12103236    -456.85233913
new    ...       0.15363610    -456.87613287

s    ...       0.03260374

 ALPHA AFTER:   0.15363610318971957     
FUNCT    ...       0.00879111       0.88297967

FUNCT    ...       0.76348373       0.52535856

FUNCT    ...       0.64055248       0.74398157

FUNCT    ...       0.57159831       0.21190782

FUNCT    ...       0.03127238       0.55831674

FUNCT    ...       0.62936924       0.12834006

FUNCT    ...      -0.00239265       0.42276962

FUNCT    ...       0.23786950      -0.01688646

FUNCT    ...       0.02927767       0.50798522

FUNCT    ...       0.44537134       0.20095678

FUNCT    ...       0.31731297       0.40907437

FUNCT    ...       0.60013310       0.46498784

FUNCT    ...       0.25733870       0.80654791

FUNCT    ...       0.29653942       0.26538902

FUNCT    ...       0.21050290       0.82276625

FUNCT    ...       0.19692617       0.66533655

FUNCT    ...       0.94632461       0.76799819

FUNCT    ...       0.82334870       0.63360728

FUNCT    ...       0.63639336       0.35502186

FUNCT    ...       0.17375201       0.28383408

FUNCT    ...       0.28975072       0.46875729

FUNCT    ...       1.12732257       0.74889165

FUNCT    ...       1.00409515       1.05390191

FUNCT    ...       1.04220221       0.83464299

FUNCT    ...    -456.87613287
  Cycle:     14 Energy:      -456.876133  Gnorm:      1.286762  CPU:    0.086
 Line minimisation2
 ALPHA BEFORE:   0.15363610318971957     
  ** Opt : line minimisation
left   ...       0.00000000    -456.87613287
centre ...       0.03840903    -457.01210428
right  ...       0.07681805    -457.12689540

left   ...       0.00000000    -456.87613287
centre ...       0.03840903    -457.01210428
right  ...       0.07681805    -457.12689540
new    ...       0.26577943    -457.39318729

s    ...       0.18896138

left   ...       0.03840903    -457.01210428
centre ...       0.07681805    -457.12689540
right  ...       0.26577943    -457.39318729
new    ...       0.27273518    -457.39385972

s    ...       0.00695574

 ALPHA AFTER:   0.27273517647006307     
FUNCT    ...       0.00766206       0.88702364

FUNCT    ...       0.76630702       0.51971310

FUNCT    ...       0.64013722       0.74396820

FUNCT    ...       0.57165455       0.21371340

FUNCT    ...       0.02526066       0.56118532

FUNCT    ...       0.63450128       0.11979533

FUNCT    ...      -0.00168457       0.41892268

FUNCT    ...       0.23615790      -0.02056583

FUNCT    ...       0.02625307       0.50277793

FUNCT    ...       0.44336194       0.19746547

FUNCT    ...       0.31629885       0.40671761

FUNCT    ...       0.60060612       0.46925120

FUNCT    ...       0.25592448       0.80602702

FUNCT    ...       0.28901878       0.27243560

FUNCT    ...       0.21441607       0.82236131

FUNCT    ...       0.19705414       0.67378880

FUNCT    ...       0.94437293       0.76778203

FUNCT    ...       0.82195361       0.63080606

FUNCT    ...       0.63470914       0.35777041

FUNCT    ...       0.17521280       0.28177089

FUNCT    ...       0.29462675       0.47124121

FUNCT    ...       1.12484622       0.74863564

FUNCT    ...       1.00705653       1.05558154

FUNCT    ...       1.03907408       0.82597692

FUNCT    ...    -457.39385972
  Cycle:     15 Energy:      -457.393860  Gnorm:      1.103273  CPU:    0.090
 Line minimisation2
 ALPHA BEFORE:   0.27273517647006307     
  ** Opt : line minimisation
left   ...       0.00000000    -457.39385972
centre ...       0.06818379    -457.56540940
right  ...       0.13636759    -457.69305827

left   ...       0.00000000    -457.39385972
centre ...       0.06818379    -457.56540940
right  ...       0.13636759    -457.69305827
new    ...       0.30053136    -457.82749817

s    ...       0.16416377

left   ...       0.06818379    -457.56540940
centre ...       0.13636759    -457.69305827
right  ...       0.30053136    -457.82749817
new    ...       0.30878356    -457.82791788

s    ...       0.00825221

 ALPHA AFTER:   0.30878356372364274     
FUNCT    ...       0.00647062       0.89202646

FUNCT    ...       0.76532795       0.51218721

FUNCT    ...       0.63998858       0.74499658

FUNCT    ...       0.57174790       0.21700253

FUNCT    ...       0.02417318       0.56629941

FUNCT    ...       0.63611293       0.11350602

FUNCT    ...      -0.00123803       0.41649880

FUNCT    ...       0.23394883      -0.02390588

FUNCT    ...       0.02253103       0.50220722

FUNCT    ...       0.44050732       0.19679462

FUNCT    ...       0.31891727       0.40426928

FUNCT    ...       0.60179831       0.47169789

FUNCT    ...       0.25428189       0.80585866

FUNCT    ...       0.28110656       0.28125876

FUNCT    ...       0.22029530       0.82234522

FUNCT    ...       0.19781829       0.68304042

FUNCT    ...       0.94241848       0.76490604

FUNCT    ...       0.82025245       0.62986807

FUNCT    ...       0.63125892       0.36227497

FUNCT    ...       0.16928223       0.27949999

FUNCT    ...       0.29633585       0.46522440

FUNCT    ...       1.12170147       0.74903210

FUNCT    ...       1.00923111       1.05667294

FUNCT    ...       1.03486138       0.81676835

FUNCT    ...    -457.82791788
  Cycle:     16 Energy:      -457.827918  Gnorm:      1.193532  CPU:    0.095
 Line minimisation2
 ALPHA BEFORE:   0.30878356372364274     
  ** Opt : line minimisation
left   ...       0.00000000    -457.82791788
centre ...       0.07719589    -458.06417210
right  ...       0.15439178    -458.26331571

left   ...       0.00000000    -457.82791788
centre ...       0.07719589    -458.06417210
right  ...       0.15439178    -458.26331571
new    ...       0.53004394    -458.67472868

s    ...       0.37565215

left   ...       0.07719589    -458.06417210
centre ...       0.15439178    -458.26331571
right  ...       0.53004394    -458.67472868
new    ...       0.50926082    -458.67656367

s    ...      -0.02078311

 ALPHA AFTER:   0.50926082208234091     
FUNCT    ...       0.00305943       0.90378754

FUNCT    ...       0.76048173       0.49395265

FUNCT    ...       0.64066261       0.74986650

FUNCT    ...       0.57143552       0.22384944

FUNCT    ...       0.02623967       0.57996086

FUNCT    ...       0.63661790       0.10513059

FUNCT    ...      -0.00119487       0.41391794

FUNCT    ...       0.22573147      -0.03093375

FUNCT    ...       0.01441271       0.50249966

FUNCT    ...       0.43516336       0.20178104

FUNCT    ...       0.31003458       0.39853948

FUNCT    ...       0.60594160       0.46754880

FUNCT    ...       0.25087297       0.80654863

FUNCT    ...       0.26928998       0.30275945

FUNCT    ...       0.23564991       0.81737608

FUNCT    ...       0.20016578       0.70449772

FUNCT    ...       0.93430399       0.75406607

FUNCT    ...       0.81641182       0.63126133

FUNCT    ...       0.62269814       0.37040059

FUNCT    ...       0.16334980       0.27608844

FUNCT    ...       0.29285165       0.46558637

FUNCT    ...       1.11188042       0.75071072

FUNCT    ...       1.01136707       1.06001083

FUNCT    ...       1.02297161       0.79492132

FUNCT    ...    -458.67656367
  Cycle:     17 Energy:      -458.676564  Gnorm:      1.450554  CPU:    0.100
 Perform trimming
 Line minimisation2
 ALPHA BEFORE:   0.50926082208234091     
  ** Opt : line minimisation
left   ...       0.00000000    -458.67656367
centre ...       0.12731521    -459.04143367
right  ...       0.25463041    -458.94759174

left   ...       0.00000000    -458.67656367
centre ...       0.12731521    -459.04143367
right  ...       0.25463041    -458.94759174
new    ...       0.16492704    -459.05940984

s    ...      -0.08970337

left   ...       0.12731521    -459.04143367
centre ...       0.16492704    -459.05940984
right  ...       0.25463041    -458.94759174
new    ...       0.16376390    -459.05944207

s    ...      -0.00116314

 ALPHA AFTER:   0.16376390261260673     
FUNCT    ...       0.00133968       0.90956344

FUNCT    ...       0.75901301       0.48524036

FUNCT    ...       0.64103040       0.75059797

FUNCT    ...       0.57079624       0.22429116

FUNCT    ...       0.02141604       0.58627215

FUNCT    ...       0.63931196       0.10174868

FUNCT    ...      -0.00107760       0.41428955

FUNCT    ...       0.22170315      -0.03417766

FUNCT    ...       0.01144870       0.50257943

FUNCT    ...       0.43215715       0.20611579

FUNCT    ...       0.30787565       0.39604679

FUNCT    ...       0.60663841       0.46530890

FUNCT    ...       0.24945381       0.80734513

FUNCT    ...       0.26583692       0.31324074

FUNCT    ...       0.24325323       0.81508800

FUNCT    ...       0.20132966       0.71464703

FUNCT    ...       0.93153175       0.74729003

FUNCT    ...       0.81493526       0.63007314

FUNCT    ...       0.61917518       0.37272950

FUNCT    ...       0.16698391       0.27500516

FUNCT    ...       0.28892354       0.46418757

FUNCT    ...       1.10686829       0.75238034

FUNCT    ...       1.01265462       1.06175913

FUNCT    ...       1.01707784       0.78408006

FUNCT    ...    -459.05944207
  Cycle:     18 Energy:      -459.059442  Gnorm:      1.324505  CPU:    0.104
 Line minimisation2
 ALPHA BEFORE:   0.16376390261260673     
  ** Opt : line minimisation
left   ...       0.00000000    -459.05944207
centre ...       0.04094098    -459.21452449
right  ...       0.08188195    -459.34983972

left   ...       0.00000000    -459.05944207
centre ...       0.04094098    -459.21452449
right  ...       0.08188195    -459.34983972
new    ...       0.34167066    -459.70738930

s    ...       0.25978870

left   ...       0.04094098    -459.21452449
centre ...       0.08188195    -459.34983972
right  ...       0.34167066    -459.70738930
new    ...       0.31906909    -459.71158534

s    ...      -0.02260156

 ALPHA AFTER:   0.31906909145462353     
FUNCT    ...      -0.00232703       0.91926176

FUNCT    ...       0.75598649       0.47066164

FUNCT    ...       0.64205091       0.74548616

FUNCT    ...       0.56880433       0.22334998

FUNCT    ...       0.01536473       0.59683638

FUNCT    ...       0.64764646       0.10051907

FUNCT    ...       0.00049004       0.41767347

FUNCT    ...       0.21836877      -0.03956483

FUNCT    ...       0.00852918       0.49928913

FUNCT    ...       0.42582458       0.21537747

FUNCT    ...       0.31327554       0.39265424

FUNCT    ...       0.60414021       0.46123853

FUNCT    ...       0.24749595       0.80945176

FUNCT    ...       0.26282314       0.33113730

FUNCT    ...       0.25631791       0.81295462

FUNCT    ...       0.20333682       0.73149481

FUNCT    ...       0.92983164       0.73298421

FUNCT    ...       0.81329698       0.62945195

FUNCT    ...       0.61349187       0.37260184

FUNCT    ...       0.16141267       0.27364092

FUNCT    ...       0.27969170       0.46325659

FUNCT    ...       1.09819137       0.75600437

FUNCT    ...       1.01463858       1.06369182

FUNCT    ...       1.00625605       0.76501983

FUNCT    ...    -459.71158534
  Cycle:     19 Energy:      -459.711585  Gnorm:      1.149213  CPU:    0.109
 Line minimisation2
 ALPHA BEFORE:   0.31906909145462353     
  ** Opt : line minimisation
left   ...       0.00000000    -459.71158534
centre ...       0.07976727    -459.89294610
right  ...       0.15953455    -459.95596215

left   ...       0.00000000    -459.71158534
centre ...       0.07976727    -459.89294610
right  ...       0.15953455    -459.95596215
new    ...       0.16212529    -459.95609092

s    ...       0.00259075

 ALPHA AFTER:   0.16212529271902498     
FUNCT    ...      -0.00304939       0.91913047

FUNCT    ...       0.75652974       0.46979067

FUNCT    ...       0.64227436       0.74512999

FUNCT    ...       0.56815597       0.22324703

FUNCT    ...       0.01884886       0.59727992

FUNCT    ...       0.64825197       0.10131019

FUNCT    ...       0.00060242       0.41830114

FUNCT    ...       0.21696447      -0.04016968

FUNCT    ...       0.00868695       0.49864015

FUNCT    ...       0.42665551       0.21493018

FUNCT    ...       0.30889156       0.39306096

FUNCT    ...       0.60239399       0.46260592

FUNCT    ...       0.24772098       0.80934684

FUNCT    ...       0.26535522       0.33126823

FUNCT    ...       0.25620715       0.81243353

FUNCT    ...       0.20354147       0.73181764

FUNCT    ...       0.93081975       0.73226799

FUNCT    ...       0.81457972       0.62589241

FUNCT    ...       0.61325932       0.37198479

FUNCT    ...       0.16122171       0.27291239

FUNCT    ...       0.28136960       0.46613883

FUNCT    ...       1.09796797       0.75612105

FUNCT    ...       1.01489263       1.06331500

FUNCT    ...       1.00558293       0.76431711

FUNCT    ...    -459.95609092
  Cycle:     20 Energy:      -459.956091  Gnorm:      0.786178  CPU:    0.113
 Line minimisation2
 ALPHA BEFORE:   0.16212529271902498     
  ** Opt : line minimisation
left   ...       0.00000000    -459.95609092
centre ...       0.04053132    -460.01143565
right  ...       0.08106265    -460.06051172

left   ...       0.00000000    -459.95609092
centre ...       0.04053132    -460.01143565
right  ...       0.08106265    -460.06051172
new    ...       0.37810801    -460.22756522

s    ...       0.29704537

left   ...       0.04053132    -460.01143565
centre ...       0.08106265    -460.06051172
right  ...       0.37810801    -460.22756522
new    ...       0.37597460    -460.22758185

s    ...      -0.00213341

 ALPHA AFTER:   0.37597460095028212     
FUNCT    ...      -0.00610182       0.91875854

FUNCT    ...       0.75382860       0.46746573

FUNCT    ...       0.64353934       0.74013322

FUNCT    ...       0.56575527       0.22119486

FUNCT    ...       0.02298168       0.59878511

FUNCT    ...       0.65051999       0.10392747

FUNCT    ...       0.00141036       0.42107993

FUNCT    ...       0.21450967      -0.04169315

FUNCT    ...       0.00995587       0.49599811

FUNCT    ...       0.42744298       0.21445663

FUNCT    ...       0.30852409       0.39450382

FUNCT    ...       0.59747973       0.46839404

FUNCT    ...       0.24844812       0.80897408

FUNCT    ...       0.27148228       0.33190815

FUNCT    ...       0.25591028       0.81340097

FUNCT    ...       0.20425621       0.73290164

FUNCT    ...       0.93466405       0.72923911

FUNCT    ...       0.81727064       0.62380985

FUNCT    ...       0.61239915       0.37189786

FUNCT    ...       0.16065603       0.27128846

FUNCT    ...       0.28496084       0.46259503

FUNCT    ...       1.09715671       0.75674603

FUNCT    ...       1.01548900       1.06157360

FUNCT    ...       1.00376435       0.76193898

FUNCT    ...    -460.22758185
  Cycle:     21 Energy:      -460.227582  Gnorm:      0.789178  CPU:    0.118
 Line minimisation2
 ALPHA BEFORE:   0.37597460095028212     
  ** Opt : line minimisation
left   ...       0.00000000    -460.22758185
centre ...       0.09399365    -460.34278121
right  ...       0.18798730    -460.41928062

left   ...       0.00000000    -460.22758185
centre ...       0.09399365    -460.34278121
right  ...       0.18798730    -460.41928062
new    ...       0.32679071    -460.46467391

s    ...       0.13880341

 ALPHA AFTER:   0.32679071148388428     
FUNCT    ...      -0.01009398       0.91857536

FUNCT    ...       0.75199658       0.46353849

FUNCT    ...       0.64544904       0.73772336

FUNCT    ...       0.56192403       0.21642443

FUNCT    ...       0.02095568       0.60095261

FUNCT    ...       0.65334030       0.10726258

FUNCT    ...       0.00346314       0.42508033

FUNCT    ...       0.21366228      -0.04374493

FUNCT    ...       0.01204779       0.49011808

FUNCT    ...       0.42784199       0.21487053

FUNCT    ...       0.31115844       0.39614765

FUNCT    ...       0.59341216       0.47115373

FUNCT    ...       0.24945897       0.80848369

FUNCT    ...       0.27892984       0.33290800

FUNCT    ...       0.25573139       0.81320212

FUNCT    ...       0.20529315       0.73469130

FUNCT    ...       0.93766457       0.72475183

FUNCT    ...       0.81991773       0.62255838

FUNCT    ...       0.61108062       0.37388832

FUNCT    ...       0.16342476       0.27045134

FUNCT    ...       0.28727980       0.46489033

FUNCT    ...       1.09584668       0.75812055

FUNCT    ...       1.01665316       1.05911311

FUNCT    ...       1.00075791       0.75856371

FUNCT    ...    -460.46467391
  Cycle:     22 Energy:      -460.464674  Gnorm:      0.688213  CPU:    0.122
 Line minimisation2
 ALPHA BEFORE:   0.32679071148388428     
  ** Opt : line minimisation
left   ...       0.00000000    -460.46467391
centre ...       0.08169768    -460.54229065
right  ...       0.16339536    -460.59009785

left   ...       0.00000000    -460.46467391
centre ...       0.08169768    -460.54229065
right  ...       0.16339536    -460.59009785
new    ...       0.25356953    -460.60821165

s    ...       0.09017418

 ALPHA AFTER:   0.25356953274214156     
FUNCT    ...      -0.01290459       0.91907004

FUNCT    ...       0.75083276       0.45966013

FUNCT    ...       0.64695840       0.73871282

FUNCT    ...       0.55840987       0.21469078

FUNCT    ...       0.02253554       0.60287389

FUNCT    ...       0.65457631       0.10969628

FUNCT    ...       0.00561836       0.42812849

FUNCT    ...       0.21443512      -0.04581775

FUNCT    ...       0.01310808       0.48856110

FUNCT    ...       0.42805180       0.21644688

FUNCT    ...       0.31357297       0.39714480

FUNCT    ...       0.59336431       0.47048976

FUNCT    ...       0.25021100       0.80840712

FUNCT    ...       0.28346656       0.33371458

FUNCT    ...       0.25593626       0.81259448

FUNCT    ...       0.20615979       0.73656503

FUNCT    ...       0.93873404       0.72116986

FUNCT    ...       0.82140045       0.62084310

FUNCT    ...       0.60979840       0.37418970

FUNCT    ...       0.16105735       0.27036343

FUNCT    ...       0.28653567       0.46761036

FUNCT    ...       1.09468012       0.75899698

FUNCT    ...       1.01669727       1.05639966

FUNCT    ...       0.99835747       0.75568528

FUNCT    ...    -460.60821165
  Cycle:     23 Energy:      -460.608212  Gnorm:      0.789072  CPU:    0.125
 Perform trimming
 Line minimisation2
 ALPHA BEFORE:   0.25356953274214156     
  ** Opt : line minimisation
left   ...       0.00000000    -460.60821165
centre ...       0.06339238    -460.69124548
right  ...       0.12678477    -460.76028686

left   ...       0.00000000    -460.60821165
centre ...       0.06339238    -460.69124548
right  ...       0.12678477    -460.76028686
new    ...       0.40787835    -460.89616099

s    ...       0.28109358

left   ...       0.06339238    -460.69124548
centre ...       0.12678477    -460.76028686
right  ...       0.40787835    -460.89616099
new    ...       0.40478161    -460.89620014

s    ...      -0.00309674

 ALPHA AFTER:   0.40478160622160436     
FUNCT    ...      -0.01976617       0.92146592

FUNCT    ...       0.74737744       0.44912007

FUNCT    ...       0.65093212       0.74159757

FUNCT    ...       0.54857450       0.21138290

FUNCT    ...       0.02500497       0.60809553

FUNCT    ...       0.65690112       0.11278013

FUNCT    ...       0.01056413       0.43550401

FUNCT    ...       0.21458337      -0.05186987

FUNCT    ...       0.01461098       0.49068089

FUNCT    ...       0.42914791       0.22181149

FUNCT    ...       0.31620957       0.39965175

FUNCT    ...       0.59714144       0.47057241

FUNCT    ...       0.25204405       0.80848347

FUNCT    ...       0.29275088       0.33583950

FUNCT    ...       0.25690077       0.81135885

FUNCT    ...       0.20845529       0.74235073

FUNCT    ...       0.94089688       0.71115472

FUNCT    ...       0.82358132       0.61726712

FUNCT    ...       0.60664446       0.37448679

FUNCT    ...       0.16411993       0.26996674

FUNCT    ...       0.28335719       0.46606185

FUNCT    ...       1.09135063       0.76098732

FUNCT    ...       1.01598128       1.04890721

FUNCT    ...       0.99270791       0.74762085

FUNCT    ...    -460.89620014
  Cycle:     24 Energy:      -460.896200  Gnorm:      0.983486  CPU:    0.130
 Perform trimming
 Line minimisation2
 ALPHA BEFORE:   0.40478160622160436     
  ** Opt : line minimisation
left   ...       0.00000000    -460.89620014
centre ...       0.10119540    -461.07889294
right  ...       0.20239080    -461.19640434

left   ...       0.00000000    -460.89620014
centre ...       0.10119540    -461.07889294
right  ...       0.20239080    -461.19640434
new    ...       0.33423185    -461.24673063

s    ...       0.13184104

 ALPHA AFTER:   0.33423184629340330     
FUNCT    ...      -0.02795585       0.92542630

FUNCT    ...       0.74300829       0.43586559

FUNCT    ...       0.65596017       0.74084733

FUNCT    ...       0.53533837       0.20830901

FUNCT    ...       0.02908761       0.61510529

FUNCT    ...       0.65869198       0.11566430

FUNCT    ...       0.01612374       0.44306789

FUNCT    ...       0.21524200      -0.05970278

FUNCT    ...       0.01586835       0.49092802

FUNCT    ...       0.43150545       0.22739406

FUNCT    ...       0.31490741       0.40352408

FUNCT    ...       0.60310863       0.47427194

FUNCT    ...       0.25414975       0.80863348

FUNCT    ...       0.29939611       0.33850501

FUNCT    ...       0.25875387       0.81097441

FUNCT    ...       0.21131482       0.75060699

FUNCT    ...       0.94325139       0.69656628

FUNCT    ...       0.82338322       0.62249415

FUNCT    ...       0.60309953       0.37657336

FUNCT    ...       0.16762077       0.26830089

FUNCT    ...       0.28272404       0.46708555

FUNCT    ...       1.08710135       0.76258860

FUNCT    ...       1.01521180       1.03906227

FUNCT    ...       0.98547497       0.73665203

FUNCT    ...    -461.24673063
  Cycle:     25 Energy:      -461.246731  Gnorm:      1.179094  CPU:    0.134
 Perform trimming
 Line minimisation2
 ALPHA BEFORE:   0.33423184629340330     
  ** Opt : line minimisation
left   ...       0.00000000    -461.24673063
centre ...       0.08355796    -461.48512516
right  ...       0.16711592    -461.69430725

left   ...       0.00000000    -461.24673063
centre ...       0.08355796    -461.48512516
right  ...       0.16711592    -461.69430725
new    ...       0.72367224    -461.91376542

s    ...       0.55655631

left   ...       0.08355796    -461.48512516
centre ...       0.16711592    -461.69430725
right  ...       0.72367224    -461.91376542
new    ...       0.50523088    -462.13976674

s    ...      -0.21844136

left   ...       0.16711592    -461.69430725
centre ...       0.50523088    -462.13976674
right  ...       0.72367224    -461.91376542
new    ...       0.49204586    -462.13757053

s    ...      -0.01318502

 ALPHA AFTER:   0.50523087532532129     
FUNCT    ...      -0.04275826       0.93709751

FUNCT    ...       0.74702229       0.40366991

FUNCT    ...       0.66465058       0.74271248

FUNCT    ...       0.50386206       0.20233951

FUNCT    ...       0.03609400       0.63160578

FUNCT    ...       0.66215562       0.11822566

FUNCT    ...       0.02758432       0.45646609

FUNCT    ...       0.21774423      -0.07805032

FUNCT    ...       0.01791531       0.48887594

FUNCT    ...       0.43638806       0.23753731

FUNCT    ...       0.31650476       0.41367100

FUNCT    ...       0.61484175       0.48976562

FUNCT    ...       0.25863596       0.80990396

FUNCT    ...       0.30646724       0.34445739

FUNCT    ...       0.26459311       0.81268328

FUNCT    ...       0.21772253       0.77086031

FUNCT    ...       0.95077378       0.66032343

FUNCT    ...       0.82053931       0.62044954

FUNCT    ...       0.59685277       0.38553334

FUNCT    ...       0.16893123       0.26200547

FUNCT    ...       0.28766757       0.47080572

FUNCT    ...       1.07891656       0.76491224

FUNCT    ...       1.01673558       1.01558201

FUNCT    ...       0.96946632       0.71102794

FUNCT    ...    -462.13976674
  Cycle:     26 Energy:      -462.139767  Gnorm:      0.942601  CPU:    0.140
 Line minimisation2
 ALPHA BEFORE:   0.50523087532532129     
  ** Opt : line minimisation
left   ...       0.00000000    -462.13976674
centre ...       0.12630772    -462.34864348
right  ...       0.25261544    -462.44659044

left   ...       0.00000000    -462.13976674
centre ...       0.12630772    -462.34864348
right  ...       0.25261544    -462.44659044
new    ...       0.30098670    -462.45474583

s    ...       0.04837127

 ALPHA AFTER:   0.30098670332524563     
FUNCT    ...      -0.04724422       0.94078716

FUNCT    ...       0.74806882       0.39357622

FUNCT    ...       0.66403153       0.74682511

FUNCT    ...       0.49469014       0.20041143

FUNCT    ...       0.03429343       0.63589931

FUNCT    ...       0.66551925       0.11571611

FUNCT    ...       0.02951277       0.45691867

FUNCT    ...       0.21908192      -0.08284526

FUNCT    ...       0.01831001       0.48742488

FUNCT    ...       0.43612393       0.24060918

FUNCT    ...       0.32397560       0.41631241

FUNCT    ...       0.61508580       0.49184538

FUNCT    ...       0.26000465       0.81260421

FUNCT    ...       0.30417522       0.34608941

FUNCT    ...       0.26773600       0.81421508

FUNCT    ...       0.21940525       0.77753239

FUNCT    ...       0.95291265       0.65219993

FUNCT    ...       0.82178953       0.62242297

FUNCT    ...       0.59711464       0.38760684

FUNCT    ...       0.16924820       0.25884385

FUNCT    ...       0.29067378       0.47022164

FUNCT    ...       1.07673446       0.76515206

FUNCT    ...       1.01825553       1.00883640

FUNCT    ...       0.96547887       0.70345057

FUNCT    ...    -462.45474583
  Cycle:     27 Energy:      -462.454746  Gnorm:      0.963693  CPU:    0.144
 Line minimisation2
 ALPHA BEFORE:   0.30098670332524563     
  ** Opt : line minimisation
left   ...       0.00000000    -462.45474583
centre ...       0.07524668    -462.59224445
right  ...       0.15049335    -462.67991290

left   ...       0.00000000    -462.45474583
centre ...       0.07524668    -462.59224445
right  ...       0.15049335    -462.67991290
new    ...       0.24525485    -462.72137793

s    ...       0.09476150

 ALPHA AFTER:   0.24525485485483223     
FUNCT    ...      -0.05179536       0.94444102

FUNCT    ...       0.74887415       0.38393619

FUNCT    ...       0.66174451       0.75115596

FUNCT    ...       0.48606667       0.19949542

FUNCT    ...       0.03485634       0.63996542

FUNCT    ...       0.66882377       0.11266209

FUNCT    ...       0.03013457       0.45470086

FUNCT    ...       0.21974710      -0.08719909

FUNCT    ...       0.01843178       0.48617924

FUNCT    ...       0.43616225       0.24403910

FUNCT    ...       0.32394033       0.41793938

FUNCT    ...       0.61377851       0.49167314

FUNCT    ...       0.26155501       0.81700546

FUNCT    ...       0.30111807       0.34756771

FUNCT    ...       0.27190889       0.81478812

FUNCT    ...       0.22082983       0.78436786

FUNCT    ...       0.95383355       0.64609028

FUNCT    ...       0.82460612       0.62660077

FUNCT    ...       0.59813681       0.38853106

FUNCT    ...       0.17104331       0.25475942

FUNCT    ...       0.29395491       0.47532386

FUNCT    ...       1.07419353       0.76458160

FUNCT    ...       1.01949820       1.00321506

FUNCT    ...       0.96211237       0.69614737

FUNCT    ...    -462.72137793
  Cycle:     28 Energy:      -462.721378  Gnorm:      0.771759  CPU:    0.147
 Line minimisation2
 ALPHA BEFORE:   0.24525485485483223     
  ** Opt : line minimisation
left   ...       0.00000000    -462.72137793
centre ...       0.06131371    -462.79968083
right  ...       0.12262743    -462.86324204

left   ...       0.00000000    -462.72137793
centre ...       0.06131371    -462.79968083
right  ...       0.12262743    -462.86324204
new    ...       0.35633473    -462.96757078

s    ...       0.23370731

left   ...       0.06131371    -462.79968083
centre ...       0.12262743    -462.86324204
right  ...       0.35633473    -462.96757078
new    ...       0.35104407    -462.96765009

s    ...      -0.00529067

 ALPHA AFTER:   0.35104406829380735     
FUNCT    ...      -0.05622856       0.94875637

FUNCT    ...       0.75012307       0.37470016

FUNCT    ...       0.65799630       0.75165303

FUNCT    ...       0.47773472       0.19979790

FUNCT    ...       0.03858103       0.64465031

FUNCT    ...       0.67025637       0.11040177

FUNCT    ...       0.02913553       0.45039263

FUNCT    ...       0.21876109      -0.09144263

FUNCT    ...       0.01872735       0.48955197

FUNCT    ...       0.43563832       0.24852456

FUNCT    ...       0.32082075       0.41769516

FUNCT    ...       0.61217809       0.49480469

FUNCT    ...       0.26369013       0.82358584

FUNCT    ...       0.29808362       0.34907854

FUNCT    ...       0.27779930       0.81616949

FUNCT    ...       0.22192524       0.79153842

FUNCT    ...       0.95486241       0.64108509

FUNCT    ...       0.82837230       0.62690229

FUNCT    ...       0.59899147       0.38965777

FUNCT    ...       0.17277921       0.24996918

FUNCT    ...       0.29593800       0.47321260

FUNCT    ...       1.07080632       0.76289125

FUNCT    ...       1.01941600       0.99869827

FUNCT    ...       0.96044142       0.68909117

FUNCT    ...    -462.96765009
  Cycle:     29 Energy:      -462.967650  Gnorm:      0.744655  CPU:    0.152
 Line minimisation2
 ALPHA BEFORE:   0.35104406829380735     
  ** Opt : line minimisation
left   ...       0.00000000    -462.96765009
centre ...       0.08776102    -463.04076817
right  ...       0.17552203    -463.03722893

left   ...       0.00000000    -462.96765009
centre ...       0.08776102    -463.04076817
right  ...       0.17552203    -463.03722893
new    ...       0.12758963    -463.04837571

s    ...      -0.04793240

 ALPHA AFTER:   0.12758963245673377     
FUNCT    ...      -0.05640738       0.94906825

FUNCT    ...       0.75075143       0.37448472

FUNCT    ...       0.65801514       0.75027169

FUNCT    ...       0.47752954       0.19952551

FUNCT    ...       0.03872073       0.64510907

FUNCT    ...       0.66978330       0.11154638

FUNCT    ...       0.02887926       0.45009964

FUNCT    ...       0.21926191      -0.09159070

FUNCT    ...       0.01896866       0.48928580

FUNCT    ...       0.43519152       0.24850316

FUNCT    ...       0.32267439       0.41683871

FUNCT    ...       0.61253393       0.49408706

FUNCT    ...       0.26404301       0.82411178

FUNCT    ...       0.29800084       0.34919518

FUNCT    ...       0.27858493       0.81623105

FUNCT    ...       0.22187004       0.79172856

FUNCT    ...       0.95443543       0.64115442

FUNCT    ...       0.82848843       0.62735354

FUNCT    ...       0.59874730       0.39061373

FUNCT    ...       0.17021587       0.25012192

FUNCT    ...       0.29512453       0.47401318

FUNCT    ...       1.07042405       0.76284995

FUNCT    ...       1.01912665       0.99908265

FUNCT    ...       0.96081079       0.68904170

FUNCT    ...    -463.04837571
  Cycle:     30 Energy:      -463.048376  Gnorm:      0.509065  CPU:    0.156
 Line minimisation2
 ALPHA BEFORE:   0.12758963245673377     
  ** Opt : line minimisation
left   ...       0.00000000    -463.04837571
centre ...       0.03189741    -463.06658772
right  ...       0.06379482    -463.08290522

left   ...       0.00000000    -463.04837571
centre ...       0.03189741    -463.06658772
right  ...       0.06379482    -463.08290522
new    ...       0.32258123    -463.14675875

s    ...       0.25878642

left   ...       0.03189741    -463.06658772
centre ...       0.06379482    -463.08290522
right  ...       0.32258123    -463.14675875
new    ...       0.32860835    -463.14700611

s    ...       0.00602712

 ALPHA AFTER:   0.32860835059248045     
FUNCT    ...      -0.05709346       0.95025131

FUNCT    ...       0.75377892       0.37346557

FUNCT    ...       0.65789846       0.74703457

FUNCT    ...       0.47669474       0.19803016

FUNCT    ...       0.03683446       0.64661520

FUNCT    ...       0.66911519       0.11321202

FUNCT    ...       0.02765747       0.44905196

FUNCT    ...       0.21867965      -0.09220742

FUNCT    ...       0.01955124       0.48988464

FUNCT    ...       0.43411495       0.24878289

FUNCT    ...       0.32420636       0.41371012

FUNCT    ...       0.61388361       0.49300886

FUNCT    ...       0.26537646       0.82597241

FUNCT    ...       0.29845499       0.34962301

FUNCT    ...       0.28143216       0.81577192

FUNCT    ...       0.22169390       0.79257779

FUNCT    ...       0.95298470       0.64150976

FUNCT    ...       0.82899374       0.62540161

FUNCT    ...       0.59789902       0.39287141

FUNCT    ...       0.17130249       0.25030645

FUNCT    ...       0.29319069       0.47431125

FUNCT    ...       1.06901754       0.76301390

FUNCT    ...       1.01823921       1.00068722

FUNCT    ...       0.96235845       0.68876697

FUNCT    ...    -463.14700611
  Cycle:     31 Energy:      -463.147006  Gnorm:      0.467182  CPU:    0.161
 Line minimisation2
 ALPHA BEFORE:   0.32860835059248045     
  ** Opt : line minimisation
left   ...       0.00000000    -463.14700611
centre ...       0.08215209    -463.18479187
right  ...       0.16430418    -463.21427704

left   ...       0.00000000    -463.14700611
centre ...       0.08215209    -463.18479187
right  ...       0.16430418    -463.21427704
new    ...       0.41504700    -463.25281280

s    ...       0.25074282

left   ...       0.08215209    -463.18479187
centre ...       0.16430418    -463.21427704
right  ...       0.41504700    -463.25281280
new    ...       0.41432378    -463.25281510

s    ...      -0.00072322

 ALPHA AFTER:   0.41432377691337735     
FUNCT    ...      -0.05944591       0.95191953

FUNCT    ...       0.75499497       0.37120425

FUNCT    ...       0.65758812       0.74259047

FUNCT    ...       0.47514352       0.19765540

FUNCT    ...       0.03855862       0.64886330

FUNCT    ...       0.67018679       0.11450350

FUNCT    ...       0.02569161       0.44706948

FUNCT    ...       0.21730622      -0.09336172

FUNCT    ...       0.01978796       0.49164040

FUNCT    ...       0.43290541       0.24911167

FUNCT    ...       0.32219287       0.40840332

FUNCT    ...       0.61535432       0.49057739

FUNCT    ...       0.26783103       0.82884139

FUNCT    ...       0.29839216       0.35042018

FUNCT    ...       0.28638732       0.81530509

FUNCT    ...       0.22144242       0.79442015

FUNCT    ...       0.95007306       0.64302449

FUNCT    ...       0.83056144       0.62623666

FUNCT    ...       0.59638970       0.39239367

FUNCT    ...       0.17249521       0.24949765

FUNCT    ...       0.29293760       0.47499972

FUNCT    ...       1.06656035       0.76337164

FUNCT    ...       1.01649489       1.00285300

FUNCT    ...       0.96473809       0.68794010

FUNCT    ...    -463.25281510
  Cycle:     32 Energy:      -463.252815  Gnorm:      0.554191  CPU:    0.166
 Perform trimming
 Line minimisation2
 ALPHA BEFORE:   0.41432377691337735     
  ** Opt : line minimisation
left   ...       0.00000000    -463.25281510
centre ...       0.10358094    -463.31060908
right  ...       0.20716189    -463.34769374

left   ...       0.00000000    -463.25281510
centre ...       0.10358094    -463.31060908
right  ...       0.20716189    -463.34769374
new    ...       0.34085624    -463.36440214

s    ...       0.13369436

 ALPHA AFTER:   0.34085624478672777     
FUNCT    ...      -0.06293268       0.95404222

FUNCT    ...       0.75621888       0.36726807

FUNCT    ...       0.65675381       0.74015496

FUNCT    ...       0.47286740       0.19793392

FUNCT    ...       0.04059973       0.65170960

FUNCT    ...       0.67272763       0.11461054

FUNCT    ...       0.02361695       0.44442108

FUNCT    ...       0.21591622      -0.09480381

FUNCT    ...       0.01996980       0.49415267

FUNCT    ...       0.43090278       0.24897113

FUNCT    ...       0.32358983       0.40175579

FUNCT    ...       0.61605977       0.48838899

FUNCT    ...       0.27124417       0.83197692

FUNCT    ...       0.29684753       0.35153897

FUNCT    ...       0.29268935       0.81592660

FUNCT    ...       0.22113255       0.79723083

FUNCT    ...       0.94752799       0.64533453

FUNCT    ...       0.83331446       0.62399959

FUNCT    ...       0.59422821       0.39105502

FUNCT    ...       0.17098255       0.24771077

FUNCT    ...       0.29493201       0.47297361

FUNCT    ...       1.06373105       0.76393770

FUNCT    ...       1.01499306       1.00505189

FUNCT    ...       0.96764788       0.68684952

FUNCT    ...    -463.36440214
  Cycle:     33 Energy:      -463.364402  Gnorm:      0.513581  CPU:    0.170
 Line minimisation2
 ALPHA BEFORE:   0.34085624478672777     
  ** Opt : line minimisation
left   ...       0.00000000    -463.36440214
centre ...       0.08521406    -463.41015200
right  ...       0.17042812    -463.44495673

left   ...       0.00000000    -463.36440214
centre ...       0.08521406    -463.41015200
right  ...       0.17042812    -463.44495673
new    ...       0.39879566    -463.48732116

s    ...       0.22836754

left   ...       0.08521406    -463.41015200
centre ...       0.17042812    -463.44495673
right  ...       0.39879566    -463.48732116
new    ...       0.41508503    -463.48752657

s    ...       0.01628936

 ALPHA AFTER:   0.41508502730076741     
FUNCT    ...      -0.06790480       0.95645648

FUNCT    ...       0.75803015       0.36156930

FUNCT    ...       0.65603558       0.74034005

FUNCT    ...       0.46952646       0.19751141

FUNCT    ...       0.03852797       0.65526649

FUNCT    ...       0.67597262       0.11322462

FUNCT    ...       0.02195205       0.44092296

FUNCT    ...       0.21462833      -0.09614037

FUNCT    ...       0.02055321       0.49309425

FUNCT    ...       0.42872393       0.24810998

FUNCT    ...       0.32452557       0.39428114

FUNCT    ...       0.61566732       0.48615357

FUNCT    ...       0.27569759       0.83451628

FUNCT    ...       0.29276503       0.35299292

FUNCT    ...       0.29946367       0.81656444

FUNCT    ...       0.22077433       0.80141785

FUNCT    ...       0.94551594       0.64747204

FUNCT    ...       0.83710729       0.62266505

FUNCT    ...       0.59105909       0.39161982

FUNCT    ...       0.17151979       0.24485042

FUNCT    ...       0.29945623       0.47580171

FUNCT    ...       1.06034607       0.76454846

FUNCT    ...       1.01454531       1.00775062

FUNCT    ...       0.97044524       0.68547528

FUNCT    ...    -463.48752657
  Cycle:     34 Energy:      -463.487527  Gnorm:      0.485833  CPU:    0.174
 Line minimisation2
 ALPHA BEFORE:   0.41508502730076741     
  ** Opt : line minimisation
left   ...       0.00000000    -463.48752657
centre ...       0.10377126    -463.53106999
right  ...       0.20754251    -463.54809862

left   ...       0.00000000    -463.48752657
centre ...       0.10377126    -463.53106999
right  ...       0.20754251    -463.54809862
new    ...       0.22230205    -463.54830969

s    ...       0.01475953

 ALPHA AFTER:   0.22230204565854891     
FUNCT    ...      -0.07112158       0.95790473

FUNCT    ...       0.75762168       0.35829886

FUNCT    ...       0.65625088       0.73906043

FUNCT    ...       0.46739301       0.19801197

FUNCT    ...       0.03774433       0.65741635

FUNCT    ...       0.67698775       0.11263321

FUNCT    ...       0.02141479       0.43918761

FUNCT    ...       0.21379566      -0.09670743

FUNCT    ...       0.02117819       0.49195455

FUNCT    ...       0.42740486       0.24806828

FUNCT    ...       0.32547018       0.39050562

FUNCT    ...       0.61549727       0.48688995

FUNCT    ...       0.27835477       0.83550294

FUNCT    ...       0.28942705       0.35389148

FUNCT    ...       0.30240808       0.81736440

FUNCT    ...       0.22055924       0.80421915

FUNCT    ...       0.94512180       0.64756442

FUNCT    ...       0.83916706       0.62469770

FUNCT    ...       0.58883007       0.39247772

FUNCT    ...       0.17067573       0.24324294

FUNCT    ...       0.30131334       0.47581392

FUNCT    ...       1.05799461       0.76442538

FUNCT    ...       1.01413211       1.00899283

FUNCT    ...       0.97186929       0.68466640

FUNCT    ...    -463.54830969
  Cycle:     35 Energy:      -463.548310  Gnorm:      0.445036  CPU:    0.178
 Line minimisation2
 ALPHA BEFORE:   0.22230204565854891     
  ** Opt : line minimisation
left   ...       0.00000000    -463.54830969
centre ...       0.05557551    -463.57181318
right  ...       0.11115102    -463.59174640

left   ...       0.00000000    -463.54830969
centre ...       0.05557551    -463.57181318
right  ...       0.11115102    -463.59174640
new    ...       0.39364755    -463.63392594

s    ...       0.28249653

left   ...       0.05557551    -463.57181318
centre ...       0.11115102    -463.59174640
right  ...       0.39364755    -463.63392594
new    ...       0.37295167    -463.63418991

s    ...      -0.02069588

 ALPHA AFTER:   0.37295167477366814     
FUNCT    ...      -0.07628215       0.96077808

FUNCT    ...       0.75856008       0.35255688

FUNCT    ...       0.65753442       0.73826597

FUNCT    ...       0.46356644       0.20002380

FUNCT    ...       0.03736585       0.66102210

FUNCT    ...       0.67771502       0.11115919

FUNCT    ...       0.02109102       0.43699810

FUNCT    ...       0.21079346      -0.09767891

FUNCT    ...       0.02243598       0.49123719

FUNCT    ...       0.42544052       0.24931426

FUNCT    ...       0.32411343       0.38508882

FUNCT    ...       0.61570422       0.49010359

FUNCT    ...       0.28294887       0.83660763

FUNCT    ...       0.28454332       0.35542741

FUNCT    ...       0.30576237       0.81780104

FUNCT    ...       0.22017365       0.80931942

FUNCT    ...       0.94524512       0.64553675

FUNCT    ...       0.84258255       0.62372186

FUNCT    ...       0.58465753       0.39367194

FUNCT    ...       0.17122180       0.24090838

FUNCT    ...       0.30218524       0.47452541

FUNCT    ...       1.05337582       0.76366395

FUNCT    ...       1.01351152       1.01061456

FUNCT    ...       0.97399309       0.68346014

FUNCT    ...    -463.63418991
  Cycle:     36 Energy:      -463.634190  Gnorm:      0.551248  CPU:    0.183
 Perform trimming
 Line minimisation2
 ALPHA BEFORE:   0.37295167477366814     
  ** Opt : line minimisation
left   ...       0.00000000    -463.63418991
centre ...       0.09323792    -463.68509866
right  ...       0.18647584    -463.71574046

left   ...       0.00000000    -463.63418991
centre ...       0.09323792    -463.68509866
right  ...       0.18647584    -463.71574046
new    ...       0.28082418    -463.72613047

s    ...       0.09434835

 ALPHA AFTER:   0.28082418239008466     
FUNCT    ...      -0.08213406       0.96448433

FUNCT    ...       0.76014908       0.34575005

FUNCT    ...       0.65989473       0.73895448

FUNCT    ...       0.45904353       0.20273961

FUNCT    ...       0.03852144       0.66500193

FUNCT    ...       0.67875005       0.11041564

FUNCT    ...       0.02129783       0.43519311

FUNCT    ...       0.20769636      -0.09893319

FUNCT    ...       0.02392721       0.48988160

FUNCT    ...       0.42330268       0.25146594

FUNCT    ...       0.32265835       0.37951762

FUNCT    ...       0.61622769       0.49099721

FUNCT    ...       0.28834586       0.83765585

FUNCT    ...       0.27985408       0.35718754

FUNCT    ...       0.30886866       0.81714990

FUNCT    ...       0.21971164       0.81512484

FUNCT    ...       0.94472810       0.64152512

FUNCT    ...       0.84604856       0.62294402

FUNCT    ...       0.57979058       0.39459367

FUNCT    ...       0.16857681       0.23879339

FUNCT    ...       0.30173475       0.47648810

FUNCT    ...       1.04760534       0.76275463

FUNCT    ...       1.01320598       1.01199107

FUNCT    ...       0.97599729       0.68229489

FUNCT    ...    -463.72613047
  Cycle:     37 Energy:      -463.726130  Gnorm:      0.544774  CPU:    0.187
 Line minimisation2
 ALPHA BEFORE:   0.28082418239008466     
  ** Opt : line minimisation
left   ...       0.00000000    -463.72613047
centre ...       0.07020605    -463.77169635
right  ...       0.14041209    -463.81299590

left   ...       0.00000000    -463.72613047
centre ...       0.07020605    -463.77169635
right  ...       0.14041209    -463.81299590
new    ...       0.78492804    -463.96433792

s    ...       0.64451594

left   ...       0.07020605    -463.77169635
centre ...       0.14041209    -463.81299590
right  ...       0.78492804    -463.96433792
new    ...       0.70008533    -463.96853394

s    ...      -0.08484271

 ALPHA AFTER:   0.70008532920673550     
FUNCT    ...      -0.09796844       0.97587799

FUNCT    ...       0.76135669       0.32735540

FUNCT    ...       0.66830763       0.74247500

FUNCT    ...       0.44661609       0.20639590

FUNCT    ...       0.03433583       0.67468854

FUNCT    ...       0.68561102       0.10828133

FUNCT    ...       0.02297567       0.43329574

FUNCT    ...       0.19788505      -0.10335372

FUNCT    ...       0.02673398       0.48981527

FUNCT    ...       0.41784352       0.25874815

FUNCT    ...       0.32577161       0.36651697

FUNCT    ...       0.61809932       0.48790902

FUNCT    ...       0.30298380       0.84015525

FUNCT    ...       0.27077377       0.36190769

FUNCT    ...       0.31589470       0.81418993

FUNCT    ...       0.21838692       0.82980980

FUNCT    ...       0.94204887       0.62617156

FUNCT    ...       0.85317423       0.62479067

FUNCT    ...       0.56704601       0.39703979

FUNCT    ...       0.16750823       0.23498527

[...]

FUNCT    ...       0.91756741       0.66168444

FUNCT    ...       0.52122708       0.52250050

FUNCT    ...       0.20564815       0.06821328

FUNCT    ...       0.36370029       0.58751894

FUNCT    ...       0.91089797       0.78534561

FUNCT    ...       1.02539455       1.13282240

FUNCT    ...       1.37478932       0.72528743

FUNCT    ...    -471.45344462
  Cycle:    316 Energy:      -471.453445  Gnorm:      0.013036  CPU:    2.132
 Line minimisation2
 ALPHA BEFORE:    3.6363233618707598E-003
  ** Opt : line minimisation
left   ...       0.00000000    -471.45344462
centre ...       0.00090908    -471.45344498
right  ...       0.00181816    -471.45344533

left   ...       0.00000000    -471.45344462
centre ...       0.00090908    -471.45344498
right  ...       0.00181816    -471.45344533
new    ...       0.32898787    -471.45333366

s    ...       0.32716971

left   ...       0.00090908    -471.45344498
centre ...       0.00181816    -471.45344533
right  ...       0.32898787    -471.45333366
new    ...       0.08857389    -471.45329946

s    ...      -0.24041398

left   ...       0.00090908    -471.45344498
centre ...       0.00181816    -471.45344533
right  ...       0.08857389    -471.45329946
new    ...       0.00957236    -471.45327330

s    ...      -0.07900153

left   ...       0.00090908    -471.45344498
centre ...       0.00181816    -471.45344533
right  ...       0.00957236    -471.45327330
new    ...       0.00143797    -471.45344518

s    ...      -0.00813439

 ALPHA AFTER:    1.8181616809353799E-003
FUNCT    ...      -0.14998823       1.31763679

FUNCT    ...       0.78228186       0.02923752

FUNCT    ...       0.81387855       0.85068257

FUNCT    ...       0.50339094       0.29810347

FUNCT    ...       0.11016863       0.67321045

FUNCT    ...       0.82746267       0.20420565

FUNCT    ...       0.08585631       0.56492712

FUNCT    ...       0.16183594      -0.17180398

FUNCT    ...      -0.03371148       0.62901692

FUNCT    ...       0.26564252       0.37715565

FUNCT    ...       0.39354277       0.25291565

FUNCT    ...       0.68703074       0.56595325

FUNCT    ...       0.09880991       0.94243452

FUNCT    ...       0.33546883       0.28421056

FUNCT    ...       0.45487485       0.91295578

FUNCT    ...       0.46267262       0.97796389

FUNCT    ...       0.99539775       0.27103686

FUNCT    ...       0.91756751       0.66168458

FUNCT    ...       0.52122727       0.52250063

FUNCT    ...       0.20564843       0.06821323

FUNCT    ...       0.36370043       0.58751875

FUNCT    ...       0.91089795       0.78534549

FUNCT    ...       1.02539450       1.13282240

FUNCT    ...       1.37478935       0.72528744

FUNCT    ...    -471.45344533
  Cycle:    317 Energy:      -471.453445  Gnorm:      0.012964  CPU:    2.151
 Line minimisation2
 ALPHA BEFORE:    1.8181616809353799E-003
  ** Opt : line minimisation
left   ...       0.00000000    -471.45344533
centre ...       0.00045454    -471.45344550
right  ...       0.00090908    -471.45327068

left   ...       0.00000000    -471.45344533
centre ...       0.00045454    -471.45344550
right  ...       0.00090908    -471.45327068
new    ...       0.00022773    -471.45344542

s    ...      -0.00068135

 ALPHA AFTER:    4.5454042023384498E-004
FUNCT    ...      -0.14998823       1.31763678

FUNCT    ...       0.78228184       0.02923753

FUNCT    ...       0.81387854       0.85068259

FUNCT    ...       0.50339097       0.29810349

FUNCT    ...       0.11016852       0.67321052

FUNCT    ...       0.82746265       0.20420566

FUNCT    ...       0.08585637       0.56492708

FUNCT    ...       0.16183588      -0.17180392

FUNCT    ...      -0.03371153       0.62901690

FUNCT    ...       0.26564254       0.37715567

FUNCT    ...       0.39354287       0.25291565

FUNCT    ...       0.68703075       0.56595326

FUNCT    ...       0.09880997       0.94243452

FUNCT    ...       0.33546881       0.28421058

FUNCT    ...       0.45487488       0.91295586

FUNCT    ...       0.46267263       0.97796387

FUNCT    ...       0.99539769       0.27103684

FUNCT    ...       0.91756753       0.66168461

FUNCT    ...       0.52122732       0.52250066

FUNCT    ...       0.20564850       0.06821321

FUNCT    ...       0.36370047       0.58751871

FUNCT    ...       0.91089794       0.78534546

FUNCT    ...       1.02539448       1.13282240

FUNCT    ...       1.37478936       0.72528744

FUNCT    ...    -471.45344550
  Cycle:    318 Energy:      -471.453446  Gnorm:      0.012947  CPU:    2.163
 Line minimisation2
 ALPHA BEFORE:    4.5454042023384498E-004
  ** Opt : line minimisation
left   ...       0.00000000    -471.45344550
centre ...       0.00011364    -471.45344555
right  ...       0.00022727    -471.45327059

left   ...       0.00000000    -471.45344550
centre ...       0.00011364    -471.45344555
right  ...       0.00022727    -471.45327059
new    ...       0.00005685    -471.45344553

s    ...      -0.00017042

 ALPHA AFTER:    1.1363510505846124E-004
FUNCT    ...      -0.14998823       1.31763678

FUNCT    ...       0.78228183       0.02923753

FUNCT    ...       0.81387853       0.85068260

FUNCT    ...       0.50339098       0.29810350

FUNCT    ...       0.11016849       0.67321054

FUNCT    ...       0.82746265       0.20420566

FUNCT    ...       0.08585639       0.56492707

FUNCT    ...       0.16183587      -0.17180391

FUNCT    ...      -0.03371155       0.62901690

FUNCT    ...       0.26564255       0.37715567

FUNCT    ...       0.39354290       0.25291565

FUNCT    ...       0.68703076       0.56595327

FUNCT    ...       0.09880998       0.94243453

FUNCT    ...       0.33546880       0.28421059

FUNCT    ...       0.45487489       0.91295588

FUNCT    ...       0.46267263       0.97796386

FUNCT    ...       0.99539767       0.27103683

FUNCT    ...       0.91756754       0.66168462

FUNCT    ...       0.52122733       0.52250067

FUNCT    ...       0.20564852       0.06821321

FUNCT    ...       0.36370048       0.58751869

FUNCT    ...       0.91089794       0.78534546

FUNCT    ...       1.02539448       1.13282240

FUNCT    ...       1.37478936       0.72528744

FUNCT    ...    -471.45344555
  Cycle:    319 Energy:      -471.453446  Gnorm:      0.012942  CPU:    2.171
 Line minimisation2
 ALPHA BEFORE:    1.1363510505846124E-004
  ** Opt : line minimisation
left   ...       0.00000000    -471.45344555
centre ...       0.00002841    -471.45344556
right  ...       0.00005682    -471.45344557

left   ...       0.00000000    -471.45344555
centre ...       0.00002841    -471.45344556
right  ...       0.00005682    -471.45344557
new    ...       0.30136446    -471.45333435

s    ...       0.30130764

left   ...       0.00002841    -471.45344556
centre ...       0.00005682    -471.45344557
right  ...       0.30136446    -471.45333435
new    ...       0.07721192    -471.45329701

s    ...      -0.22415254

left   ...       0.00002841    -471.45344556
centre ...       0.00005682    -471.45344557
right  ...       0.07721192    -471.45329701
new    ...       0.00650893    -471.45327305

s    ...      -0.07070299

left   ...       0.00002841    -471.45344556
centre ...       0.00005682    -471.45344557
right  ...       0.00650893    -471.45327305
new    ...       0.00008891    -471.45327058

s    ...      -0.00642002

 ALPHA AFTER:    5.6817552529230622E-005
FUNCT    ...      -0.14998823       1.31763678

FUNCT    ...       0.78228183       0.02923753

FUNCT    ...       0.81387853       0.85068260

FUNCT    ...       0.50339098       0.29810350

FUNCT    ...       0.11016848       0.67321055

FUNCT    ...       0.82746265       0.20420567

FUNCT    ...       0.08585640       0.56492707

FUNCT    ...       0.16183586      -0.17180390

FUNCT    ...      -0.03371155       0.62901690

FUNCT    ...       0.26564255       0.37715567

FUNCT    ...       0.39354291       0.25291565

FUNCT    ...       0.68703076       0.56595327

FUNCT    ...       0.09880999       0.94243453

FUNCT    ...       0.33546880       0.28421059

FUNCT    ...       0.45487489       0.91295589

FUNCT    ...       0.46267263       0.97796386

FUNCT    ...       0.99539766       0.27103683

FUNCT    ...       0.91756754       0.66168462

FUNCT    ...       0.52122733       0.52250067

FUNCT    ...       0.20564853       0.06821321

FUNCT    ...       0.36370048       0.58751869

FUNCT    ...       0.91089794       0.78534545

FUNCT    ...       1.02539448       1.13282240

FUNCT    ...       1.37478936       0.72528744

FUNCT    ...    -471.45344557
  Cycle:    320 Energy:      -471.453446  Gnorm:      0.012940  CPU:    2.193
 Line minimisation2
 ALPHA BEFORE:    5.6817552529230622E-005
  ** Opt : line minimisation
left   ...       0.00000000    -471.45344557
centre ...       0.00001420    -471.45344558
right  ...       0.00002841    -471.45327058

left   ...       0.00000000    -471.45344557
centre ...       0.00001420    -471.45344558
right  ...       0.00002841    -471.45327058
new    ...       0.00000710    -471.45344557

s    ...      -0.00002131

 ALPHA AFTER:    1.4204388132307656E-005
FUNCT    ...      -0.14998823       1.31763678

FUNCT    ...       0.78228183       0.02923753

FUNCT    ...       0.81387853       0.85068260

FUNCT    ...       0.50339099       0.29810350

FUNCT    ...       0.11016848       0.67321055

FUNCT    ...       0.82746265       0.20420567

FUNCT    ...       0.08585640       0.56492706

FUNCT    ...       0.16183586      -0.17180390

FUNCT    ...      -0.03371155       0.62901690

FUNCT    ...       0.26564255       0.37715567

FUNCT    ...       0.39354292       0.25291565

FUNCT    ...       0.68703076       0.56595327

FUNCT    ...       0.09880999       0.94243453

FUNCT    ...       0.33546880       0.28421059

FUNCT    ...       0.45487490       0.91295589

FUNCT    ...       0.46267263       0.97796386

FUNCT    ...       0.99539766       0.27103683

FUNCT    ...       0.91756754       0.66168462

FUNCT    ...       0.52122734       0.52250068

FUNCT    ...       0.20564853       0.06821321

FUNCT    ...       0.36370048       0.58751869

FUNCT    ...       0.91089794       0.78534545

FUNCT    ...       1.02539448       1.13282240

FUNCT    ...       1.37478936       0.72528744

FUNCT    ...    -471.45344558
  Cycle:    321 Energy:      -471.453446  Gnorm:      0.012939  CPU:    2.201
 Line minimisation2
 ALPHA BEFORE:    1.4204388132307656E-005
  ** Opt : line minimisation
left   ...       0.00000000    -471.45344558
centre ...       0.00000355    -471.45344558
right  ...       0.00000710    -471.45344558

left   ...       0.00000000    -471.45344558
centre ...       0.00000355    -471.45344558
right  ...       0.00000710    -471.45344558
new    ...       0.01600671    -471.45327663

s    ...       0.01599961

left   ...       0.00000355    -471.45344558
centre ...       0.00000710    -471.45344558
right  ...       0.01600671    -471.45327663
new    ...       0.00028850    -471.45327069

s    ...      -0.01571821

 ALPHA AFTER:    7.1021940661538278E-006
FUNCT    ...      -0.14998823       1.31763678

FUNCT    ...       0.78228183       0.02923753

FUNCT    ...       0.81387853       0.85068260

FUNCT    ...       0.50339099       0.29810350

FUNCT    ...       0.11016847       0.67321055

FUNCT    ...       0.82746265       0.20420567

FUNCT    ...       0.08585640       0.56492706

FUNCT    ...       0.16183586      -0.17180390

FUNCT    ...      -0.03371155       0.62901690

FUNCT    ...       0.26564256       0.37715567

FUNCT    ...       0.39354292       0.25291565

FUNCT    ...       0.68703076       0.56595327

FUNCT    ...       0.09880999       0.94243453

FUNCT    ...       0.33546880       0.28421059

FUNCT    ...       0.45487490       0.91295589

FUNCT    ...       0.46267264       0.97796386

FUNCT    ...       0.99539766       0.27103683

FUNCT    ...       0.91756754       0.66168462

FUNCT    ...       0.52122734       0.52250068

FUNCT    ...       0.20564853       0.06821321

FUNCT    ...       0.36370048       0.58751869

FUNCT    ...       0.91089794       0.78534545

FUNCT    ...       1.02539448       1.13282240

FUNCT    ...       1.37478936       0.72528744

FUNCT    ...    -471.45344558
  Cycle:    322 Energy:      -471.453446  Gnorm:      0.012939  CPU:    2.211
 Line minimisation2
 ALPHA BEFORE:    7.1021940661538278E-006
  ** Opt : line minimisation
left   ...       0.00000000    -471.45344558
centre ...       0.00000178    -471.45344558
right  ...       0.00000355    -471.45344558

left   ...       0.00000000    -471.45344558
centre ...       0.00000178    -471.45344558
right  ...       0.00000355    -471.45344558
new    ...       0.00000710    -471.45327058

s    ...       0.00000355

 ALPHA AFTER:    3.5510970330769139E-006
FUNCT    ...      -0.14998823       1.31763678

FUNCT    ...       0.78228183       0.02923753

FUNCT    ...       0.81387853       0.85068261

FUNCT    ...       0.50339099       0.29810350

FUNCT    ...       0.11016847       0.67321055

FUNCT    ...       0.82746265       0.20420567

FUNCT    ...       0.08585640       0.56492706

FUNCT    ...       0.16183586      -0.17180390

FUNCT    ...      -0.03371155       0.62901690

FUNCT    ...       0.26564256       0.37715567

FUNCT    ...       0.39354292       0.25291565

FUNCT    ...       0.68703076       0.56595327

FUNCT    ...       0.09880999       0.94243453

FUNCT    ...       0.33546880       0.28421059

FUNCT    ...       0.45487490       0.91295589

FUNCT    ...       0.46267264       0.97796386

FUNCT    ...       0.99539766       0.27103683

FUNCT    ...       0.91756754       0.66168462

FUNCT    ...       0.52122734       0.52250068

FUNCT    ...       0.20564853       0.06821321

FUNCT    ...       0.36370048       0.58751869

FUNCT    ...       0.91089794       0.78534545

FUNCT    ...       1.02539448       1.13282240

FUNCT    ...       1.37478936       0.72528744

FUNCT    ...    -471.45344558


  **** Conditions for a minimum have not been satisfied. However ****
  **** no lower point can be found - treat results with caution  ****
  **** unless gradient norm is small (less than 0.1)             ****


  Final energy =    -471.45344558 eV
  Final Gnorm  =       0.01293899

  Components of energy : 

--------------------------------------------------------------------------------
  Interatomic potentials     =          69.03275712 eV    
  Monopole - monopole (real) =        -252.65892568 eV    
  Monopole - monopole (recip)=        -287.82727702 eV    
  Monopole - monopole (total)=        -540.48620270 eV    
--------------------------------------------------------------------------------
  Total lattice energy       =        -471.45344558 eV    
--------------------------------------------------------------------------------
  Total lattice energy       =          -45488.0507 kJ/(mole unit cells)
--------------------------------------------------------------------------------

  Final fractional coordinates of atoms :

--------------------------------------------------------------------------------
   No.  Atomic        x           y          z          Radius
        Label       (Frac)      (Frac)     (Frac)       (Angs) 
--------------------------------------------------------------------------------
     1  O     c     0.500000    0.250000    0.600000    0.000000
     2  O     c     0.850012    0.317637    0.782282    0.000000
     3  O     c     0.029238    0.813879    0.850683    0.000000
     4  O     c     0.503391    0.298104    0.110168    0.000000
     5  O     c     0.673211    0.827463    0.204206    0.000000
     6  O     c     0.085856    0.564927    0.161836    0.000000
     7  O     c     0.828196    0.966288    0.629017    0.000000
     8  O     c     0.265643    0.377156    0.393543    0.000000
     9  O     c     0.252916    0.687031    0.565953    0.000000
    10  Sr    c     0.098810    0.942435    0.335469    0.000000
    11  Sr    c     0.284211    0.454875    0.912956    0.000000
    12  Sr    c     0.462673    0.977964    0.995398    0.000000
    13  Ti    c     0.271037    0.917568    0.661685    0.000000
    14  Ti    c     0.521227    0.522501    0.205649    0.000000
    15  Ti    c     0.068213    0.363700    0.587519    0.000000
--------------------------------------------------------------------------------

  Final Cartesian lattice vectors (Angstroms) :

        3.643592   -0.549425    0.749579
       -1.098850    6.282764    0.531290
        1.873947    0.664112   10.253945


  Final cell parameters and derivatives :

--------------------------------------------------------------------------------
       a            3.760252 Angstrom     dE/de1(xx)     0.014454 eV/strain
       b            6.400223 Angstrom     dE/de2(yy)     0.064106 eV/strain
       c           10.444908 Angstrom     dE/de3(zz)     0.030982 eV/strain
       alpha       83.505624 Degrees      dE/de4(yz)    -0.003395 eV/strain
       beta        68.884198 Degrees      dE/de5(xz)    -0.019239 eV/strain
       gamma      107.052477 Degrees      dE/de6(xy)    -0.003623 eV/strain
--------------------------------------------------------------------------------

  Primitive cell volume =           217.336013 Angs**3

  Density of cell =      4.206120 g/cm**3

  Non-primitive cell volume =           217.336013 Angs**3


  Final internal derivatives :

--------------------------------------------------------------------------------
   No.  Atomic          a             b             c           Radius
        Label          (eV)          (eV)          (eV)        (eV/Angs)
--------------------------------------------------------------------------------
      1 O     c       0.000000      0.000000      0.000000      0.000000
      2 O     c      -0.002327      0.016728      0.045912      0.000000
      3 O     c      -0.003579      0.030576     -0.055004      0.000000
      4 O     c      -0.064204     -0.055032      0.242412      0.000000
      5 O     c      -0.157592      0.026617     -0.020396      0.000000
      6 O     c      -0.143327      0.080155      0.134839      0.000000
      7 O     c      -0.124448      0.111214      0.032391      0.000000
      8 O     c      -0.061382     -0.030134     -0.227028      0.000000
      9 O     c       0.013642     -0.031384     -0.028431      0.000000
     10 Sr    c      -0.132277     -0.015562      0.042019      0.000000
     11 Sr    c      -0.054198     -0.067730     -0.169211      0.000000
     12 Sr    c      -0.027054      0.054916      0.151533      0.000000
     13 Ti    c       0.045269     -0.053101     -0.075781      0.000000
     14 Ti    c      -0.104928     -0.071479     -0.152887      0.000000
     15 Ti    c       0.028299     -0.077905      0.101086      0.000000
--------------------------------------------------------------------------------
  Maximum abs         0.157592      0.111214      0.242412      0.000000
--------------------------------------------------------------------------------


  Time to end of optimisation =       2.2204 seconds

 Exiting ------OPTIONS------

  Peak dynamic memory used =       0.55 MB 


  Timing analysis for GULP :

--------------------------------------------------------------------------------
  Task / Subroutine                                          Time (Seconds)
--------------------------------------------------------------------------------
  Calculation of reciprocal space energy and derivatives          0.1720
  Calculation of real space energy and derivatives                2.0114
  Global summation overhead                                       0.0009
--------------------------------------------------------------------------------
  Total CPU time                                                  2.2204
--------------------------------------------------------------------------------


  Job Finished at 13:21.26  3rd February   2020                               

