********************************************************************************
*                       GENERAL UTILITY LATTICE PROGRAM                        *
*                                 Julian Gale                                  *
*                       Curtin Institute for Computation                       *
*                           Department of Chemistry                            *
*                    Curtin University, Western Australia                      *
********************************************************************************
* Version = 5.1.1 * Last modified =  25th August 2019                          *
********************************************************************************
*  optimise     - perform optimisation run                                     *
*  conp         - constant pressure calculation                                *
*  nosymmetry   - turn off symmetry after initial structure generation         *
*  full         - generate full unit cell when symmetry is removed             *
*  conjugate    - use conjugate gradients minimiser                            *
********************************************************************************
* ASE calculation                                                              *
********************************************************************************


  Job Started  at 13:26.37 21st February   2020                               

  Number of CPUs =     1


  Total number of configurations input =      1

********************************************************************************
*  Input for Configuration =   1                                               *
********************************************************************************

  Formula = O9Sr3Ti3                                                    

  Number of irreducible atoms/shells =      15


  Total number atoms/shells =      15

  Dimensionality = 3               :  Bulk   



  Cartesian lattice vectors (Angstroms) :

        4.000000    0.000000    0.000000
        0.000000    4.000000    0.000000
        0.000000    0.000000    8.000000

  Cell parameters (Angstroms/Degrees):

  a =       4.0000    alpha =  90.0000
  b =       4.0000    beta  =  90.0000
  c =       8.0000    gamma =  90.0000

  Initial cell volume =         128.000000 Angs**3

  Temperature of configuration =  0.000     K 

  Pressure of configuration =         0.000 GPa 

  Fractional coordinates of asymmetric unit :

--------------------------------------------------------------------------------
   No.  Atomic       x           y          z         Charge      Occupancy
        Label      (Frac)      (Frac)     (Frac)        (e)         (Frac)  
--------------------------------------------------------------------------------
      1 O     c    0.500000    0.500000    0.750000    -2.00000    1.000000    
      2 O     c    0.500000 *  0.000000 *  0.750000 *  -2.00000    1.000000    
      3 O     c    0.000000 *  0.500000 *  0.750000 *  -2.00000    1.000000    
      4 O     c    0.000000 *  0.500000 *  0.000000 *  -2.00000    1.000000    
      5 O     c    0.000000 *  0.000000 *  0.250000 *  -2.00000    1.000000    
      6 O     c    0.500000 *  0.000000 *  0.250000 *  -2.00000    1.000000    
      7 O     c    0.500000 *  0.500000 *  0.250000 *  -2.00000    1.000000    
      8 O     c    0.500000 *  0.500000 *  0.500000 *  -2.00000    1.000000    
      9 O     c    0.500000 *  0.000000 *  0.500000 *  -2.00000    1.000000    
     10 Sr    c    0.250000 *  0.750000 *  0.375000 *   2.00000    1.000000    
     11 Sr    c    0.250000 *  0.750000 *  0.875000 *   2.00000    1.000000    
     12 Sr    c    0.250000 *  0.250000 *  0.625000 *   2.00000    1.000000    
     13 Ti    c    0.250000 *  0.750000 *  0.625000 *   4.00000    1.000000    
     14 Ti    c    0.750000 *  0.250000 *  0.875000 *   4.00000    1.000000    
     15 Ti    c    0.750000 *  0.750000 *  0.375000 *   4.00000    1.000000    
--------------------------------------------------------------------------------



********************************************************************************
*  General input information                                                   *
********************************************************************************

  Species output for all configurations : 

--------------------------------------------------------------------------------
  Species    Type    Atomic    Atomic    Charge       Radii (Angs)     Library
                     Number     Mass       (e)     Cova   Ionic  VDW   Symbol
--------------------------------------------------------------------------------
    O        Core        8      16.00  -2.000000   0.730  0.000  1.360          
    Sr       Core       38      87.62   2.000000   1.120  0.000  1.670          
    Ti       Core       22      47.88   4.000000   1.470  0.000  2.190          
--------------------------------------------------------------------------------


  Lattice summation method               =    Ewald          (3-D)
                                         =    Parry          (2-D)
                                         =    Saunders et al (1-D)
  Accuracy factor for lattice sums       =   12.000


  Time limit = Infinity

  Maximum range for interatomic potentials =    100000.000000 Angstroms

  General interatomic potentials :

--------------------------------------------------------------------------------
Atom  Types   Potential      Parameter       Value         Units   Cutoffs(Ang)
  1     2                                                            Min /  Max 
--------------------------------------------------------------------------------
O    c Sr   c Buckingham    Buckingham A     1952.3900    eV        0.000 10.000
                            Buckingham rho  0.33685000    Ang       
                            Buckingham C     19.220000    eV*Ang^6  
--------------------------------------------------------------------------------
O    c Ti   c Buckingham    Buckingham A     4590.7279    eV        0.000 10.000
                            Buckingham rho  0.26100000    Ang       
                            Buckingham C     0.0000000    eV*Ang^6  
--------------------------------------------------------------------------------
O    c O    c Buckingham    Buckingham A     1388.7700    eV        0.000 10.000
                            Buckingham rho  0.36262000    Ang       
                            Buckingham C     175.00000    eV*Ang^6  
--------------------------------------------------------------------------------
 Calling ------OPTIONS------

********************************************************************************
*  Output for configuration   1                                                *
********************************************************************************


  Components of energy : 

--------------------------------------------------------------------------------
  Interatomic potentials     =         283.74069147 eV    
  Monopole - monopole (real) =        -200.67401279 eV    
  Monopole - monopole (recip)=        -313.23454466 eV    
  Monopole - monopole (total)=        -513.90855745 eV    
--------------------------------------------------------------------------------
  Total lattice energy       =        -230.16786598 eV    
--------------------------------------------------------------------------------
  Total lattice energy       =          -22207.6806 kJ/(mole unit cells)
--------------------------------------------------------------------------------


  Number of variables =       48

  Maximum number of calculations  =          1000
  Maximum Hessian update interval =            10
  Maximum step size               =   1.000000000
  Maximum parameter tolerance     =   0.000010000
  Maximum function  tolerance     =   0.000010000
  Maximum gradient  tolerance     =   0.001000000
  Maximum gradient  component     =   0.010000000

  Cell parameters to be optimised using strains

  Conjugate gradient optimiser to be used

  Lower half triangular hessian to be used

  Start of bulk optimisation :

  Cycle:      0 Energy:      -230.167866  Gnorm:     22.287918  CPU:    0.012
 Perform trimming
 ALPHA BEFORE:    1.0000000000000000     
 XC BEFORE:   0.50000000000000000     
  ** Opt : line minimisation
left   ...       0.00000000    -230.16786598
centre ...       0.25000000    -291.31288697
right  ...       0.50000000    -323.60564679

left   ...       0.00000000    -230.16786598
centre ...       0.25000000    -291.31288697
right  ...       0.50000000    -323.60564679
new    ...       0.65481134    -333.87884266

__s__    ...       0.15481134

left   ...       0.25000000    -291.31288697
centre ...       0.50000000    -323.60564679
right  ...       0.65481134    -333.87884266
new    ...       0.79124407    -338.62254581

__s__    ...       0.13643273

left   ...       0.50000000    -323.60564679
centre ...       0.65481134    -333.87884266
right  ...       0.79124407    -338.62254581
new    ...       0.88330707    -340.02226173

__s__    ...       0.09206300

left   ...       0.65481134    -333.87884266
centre ...       0.79124407    -338.62254581
right  ...       0.88330707    -340.02226173
new    ...       0.92605425    -340.24616919

__s__    ...       0.04274717

 ALPHA AFTER:   0.92605424545865089     
 XC AFTER:   0.52089963337402756     
 SANITY CHECK:   0.92605424545865056     
 DIRECTION dim            1  value    2.2568476389497587E-002
 DIRECTION dim            2  value   -1.3055069648517314E-003
 DIRECTION dim            3  value    2.2448690421472572E-002
 DIRECTION dim            4  value   -2.2568476389497584E-002
 DIRECTION dim            5  value    1.3055069648517275E-003
 DIRECTION dim            6  value   -4.4813349452158369E-002
 DIRECTION dim            7  value   -1.3416645871908703E-002
 DIRECTION dim            8  value   -1.2332566993782179E-002
 DIRECTION dim            9  value    3.2916138704582364E-003
 DIRECTION dim           10  value   -1.3416645871908706E-002
 DIRECTION dim           11  value    7.8463235527371795E-003
 DIRECTION dim           12  value    4.5190925505778192E-003
 DIRECTION dim           13  value    1.3416645871908694E-002
 DIRECTION dim           14  value    7.8463235527371691E-003
 DIRECTION dim           15  value   -3.5530323597243389E-002
 DIRECTION dim           16  value    1.3416645871908706E-002
 DIRECTION dim           17  value   -7.8463235527371812E-003
 DIRECTION dim           18  value   -2.9111927386237666E-002
 DIRECTION dim           19  value    2.2568476389497581E-002
 DIRECTION dim           20  value    5.7917504058967277E-003
 DIRECTION dim           21  value    3.0584246820116460E-002
 DIRECTION dim           22  value    2.2568476389497598E-002
 DIRECTION dim           23  value   -5.7917504058967355E-003
 DIRECTION dim           24  value    4.3421039242128132E-002
 DIRECTION dim           25  value   -3.3039655425651536E-002
 DIRECTION dim           26  value   -1.1776686001005657E-002
 DIRECTION dim           27  value   -6.4014734102805754E-002
 DIRECTION dim           28  value    1.1452012886827298E-003
 DIRECTION dim           29  value    2.2408170713328561E-002
 DIRECTION dim           30  value   0.12780364237674338     
 DIRECTION dim           31  value   -3.3039655425651501E-002
 DIRECTION dim           32  value   -1.1013218475217190E-002
 DIRECTION dim           33  value   -4.1816126889574902E-002
 DIRECTION dim           34  value    9.5006847674399906E-003
 DIRECTION dim           35  value   -3.1668949224800025E-003
 DIRECTION dim           36  value    3.1204617379028361E-004
 DIRECTION dim           37  value   -2.7713196058724845E-003
 DIRECTION dim           38  value    5.4100166430025133E-003
 DIRECTION dim           39  value    8.0578264370272545E-002
 DIRECTION dim           40  value   -9.5006847674400097E-003
 DIRECTION dim           41  value    1.3193485185650068E-003
 DIRECTION dim           42  value  -0.11370246860800651     
 DIRECTION dim           43  value   0.10641042372224095     
 DIRECTION dim           44  value   0.11938636541325774     
 DIRECTION dim           45  value    8.7045512930933280E-002
 DIRECTION dim           46  value    2.6785861345274601E-003
 DIRECTION dim           47  value   -3.4183656126954148E-003
 DIRECTION dim           48  value    2.9036573873909660E-005
  Cycle:      1 Energy:      -340.246169  Gnorm:     15.240717  CPU:    0.025
 Perform trimming
 ALPHA BEFORE:   0.92605424545865089     
 XC BEFORE:   0.52089963337402756     
  ** Opt : line minimisation
left   ...       0.00000000    -340.24616919
centre ...       0.23151356    -386.54672983
right  ...       0.46302712    -388.34292258

left   ...       0.00000000    -340.24616919
centre ...       0.23151356    -386.54672983
right  ...       0.46302712    -388.34292258
new    ...       0.35661421    -392.10925495

__s__    ...      -0.10641291

left   ...       0.23151356    -386.54672983
centre ...       0.35661421    -392.10925495
right  ...       0.46302712    -388.34292258
new    ...       0.35851651    -392.10509549

__s__    ...       0.00190230

 ALPHA AFTER:   0.35661421101815116     
 XC AFTER:   0.52059092676234520     
 SANITY CHECK:   0.35661421101805291     
 DIRECTION dim            1  value   -8.6565987037105394E-004
 DIRECTION dim            2  value   -2.6808058083782663E-003
 DIRECTION dim            3  value   0.15369827663159655     
 DIRECTION dim            4  value    1.0964793565814758E-002
 DIRECTION dim            5  value    2.2999594775534926E-002
 DIRECTION dim            6  value    1.8214945489622509E-002
 DIRECTION dim            7  value   -2.2016144596575159E-002
 DIRECTION dim            8  value   -1.6623269060871419E-002
 DIRECTION dim            9  value    6.7200196794705985E-002
 DIRECTION dim           10  value   -1.5553714176589907E-002
 DIRECTION dim           11  value    5.1867191702075544E-002
 DIRECTION dim           12  value   -4.8634741501927196E-002
 DIRECTION dim           13  value   -1.3704946013630385E-003
 DIRECTION dim           14  value    1.3906549582459998E-002
 DIRECTION dim           15  value  -0.10710217542203603     
 DIRECTION dim           16  value    1.2051673953440296E-002
 DIRECTION dim           17  value   -1.7408241449977609E-002
 DIRECTION dim           18  value   -8.4873524961349214E-002
 DIRECTION dim           19  value    1.4235993419990539E-002
 DIRECTION dim           20  value    3.7929124315891516E-002
 DIRECTION dim           21  value  -0.14928931126735615     
 DIRECTION dim           22  value    2.6067711898314996E-002
 DIRECTION dim           23  value   -4.1425766897701333E-002
 DIRECTION dim           24  value  -0.11071207656684845     
 DIRECTION dim           25  value    1.2140547986215161E-002
 DIRECTION dim           26  value   -4.7036155916675454E-002
 DIRECTION dim           27  value    7.9813481528683880E-002
 DIRECTION dim           28  value    3.7115431695488324E-002
 DIRECTION dim           29  value    4.0234547721723767E-002
 DIRECTION dim           30  value   -2.2870221622307940E-003
 DIRECTION dim           31  value   -5.1663781974445003E-002
 DIRECTION dim           32  value   -7.9058030395372670E-003
 DIRECTION dim           33  value   -1.2392230460944275E-002
 DIRECTION dim           34  value    5.3132435989272697E-002
 DIRECTION dim           35  value   -2.0331214303163737E-002
 DIRECTION dim           36  value   0.10504945032555704     
 DIRECTION dim           37  value   -4.1820441729864141E-002
 DIRECTION dim           38  value   -6.4147083302530279E-003
 DIRECTION dim           39  value  -0.12009574940530640     
 DIRECTION dim           40  value   -1.7460793247476871E-002
 DIRECTION dim           41  value   -1.3495187923916638E-002
 DIRECTION dim           42  value    5.3449145181728892E-002
 DIRECTION dim           43  value   0.14472979785931755     
 DIRECTION dim           44  value   0.17963915264881114     
 DIRECTION dim           45  value    6.7572459737768348E-002
 DIRECTION dim           46  value    2.6541173226372417E-003
 DIRECTION dim           47  value   -2.2842456345100668E-004
 DIRECTION dim           48  value   -1.4473915466415195E-003
  Cycle:      2 Energy:      -392.109255  Gnorm:      6.444002  CPU:    0.030
 ALPHA BEFORE:   0.35661421101815116     
 XC BEFORE:   0.52059092676234520     
  ** Opt : line minimisation
left   ...       0.00000000    -392.10925495
centre ...       0.08915355    -399.51367342
right  ...       0.17830711    -405.09719178

left   ...       0.00000000    -392.10925495
centre ...       0.08915355    -399.51367342
right  ...       0.17830711    -405.09719178
new    ...       0.40710639    -410.58642815

__s__    ...       0.22879928

left   ...       0.08915355    -399.51367342
centre ...       0.17830711    -405.09719178
right  ...       0.40710639    -410.58642815
new    ...       0.39142351    -410.63765347

__s__    ...      -0.01568288

 ALPHA AFTER:   0.39142351006182696     
 XC AFTER:   0.51499783256132947     
 SANITY CHECK:   0.39142351006182396     
 DIRECTION dim            1  value   -1.4289111556258630E-002
 DIRECTION dim            2  value   -6.8094122918694617E-003
 DIRECTION dim            3  value   -8.0990873224392954E-003
 DIRECTION dim            4  value    2.7287757388144471E-002
 DIRECTION dim            5  value    3.0473555437044875E-002
 DIRECTION dim            6  value    1.9139115039856165E-002
 DIRECTION dim            7  value   -4.3434787248724051E-002
 DIRECTION dim            8  value   -2.9009117289152234E-002
 DIRECTION dim            9  value   -6.7797226869099933E-002
 DIRECTION dim           10  value   -6.5715109650976277E-003
 DIRECTION dim           11  value   -1.7420250188055549E-002
 DIRECTION dim           12  value    4.7831086292829145E-002
 DIRECTION dim           13  value    7.9435382140275890E-003
 DIRECTION dim           14  value   -5.1254992011796556E-002
 DIRECTION dim           15  value   -6.2530146569993478E-002
 DIRECTION dim           16  value    1.8851328324929178E-002
 DIRECTION dim           17  value    4.6550592896105601E-002
 DIRECTION dim           18  value   -3.2489388144952537E-002
 DIRECTION dim           19  value    1.1892330238498174E-002
 DIRECTION dim           20  value    3.0688185281780231E-002
 DIRECTION dim           21  value   -1.8930600524048859E-002
 DIRECTION dim           22  value    3.2711887552897209E-003
 DIRECTION dim           23  value   -4.0873638415488453E-002
 DIRECTION dim           24  value    2.7318583310036074E-002
 DIRECTION dim           25  value    6.7409963966737693E-003
 DIRECTION dim           26  value   -2.1782850032257731E-002
 DIRECTION dim           27  value   -4.5343570625308180E-002
 DIRECTION dim           28  value    1.9127159926340453E-002
 DIRECTION dim           29  value    1.7748487996765802E-002
 DIRECTION dim           30  value    7.5425117027923247E-002
 DIRECTION dim           31  value   -2.1339880780115068E-002
 DIRECTION dim           32  value   -7.7024247384257756E-003
 DIRECTION dim           33  value   -7.4976973665860050E-002
 DIRECTION dim           34  value    9.3202650698551978E-002
 DIRECTION dim           35  value   -2.3327073211058633E-002
 DIRECTION dim           36  value    4.7504634728652934E-002
 DIRECTION dim           37  value   -1.1228190089608020E-002
 DIRECTION dim           38  value    6.6390310495617874E-002
 DIRECTION dim           39  value    6.0932761213336073E-002
 DIRECTION dim           40  value   -7.2093256802426689E-002
 DIRECTION dim           41  value    1.9016911554874585E-002
 DIRECTION dim           42  value   -9.2166647355913969E-002
 DIRECTION dim           43  value   0.11580905752976028     
 DIRECTION dim           44  value   0.12747885410810009     
 DIRECTION dim           45  value    3.0401438161144764E-002
 DIRECTION dim           46  value    2.2203418010261484E-003
 DIRECTION dim           47  value    1.7884745132049303E-002
 DIRECTION dim           48  value   -2.1482130303160492E-002
  Cycle:      3 Energy:      -410.637653  Gnorm:      5.341341  CPU:    0.035
 ALPHA BEFORE:   0.39142351006182696     
 XC BEFORE:   0.51499783256132947     
  ** Opt : line minimisation
left   ...       0.00000000    -410.63765347
centre ...       0.09785588    -416.12804132
right  ...       0.19571176    -420.35054055

left   ...       0.00000000    -410.63765347
centre ...       0.09785588    -416.12804132
right  ...       0.19571176    -420.35054055
new    ...       0.47267709    -425.83394009

__s__    ...       0.27696533

left   ...       0.09785588    -416.12804132
centre ...       0.19571176    -420.35054055
right  ...       0.47267709    -425.83394009
new    ...       0.49308341    -425.88334411

__s__    ...       0.02040632

 ALPHA AFTER:   0.49308340813776036     
 XC AFTER:   0.50564781108945478     
 SANITY CHECK:   0.49308340813776380     
 DIRECTION dim            1  value   -1.8962352651830390E-002
 DIRECTION dim            2  value    7.0454462894902273E-005
 DIRECTION dim            3  value    3.6539736203772016E-002
 DIRECTION dim            4  value    6.0089017140376483E-002
 DIRECTION dim            5  value    4.6158303620118406E-002
 DIRECTION dim            6  value    5.7842338095715623E-004
 DIRECTION dim            7  value   -1.7971373439309140E-002
 DIRECTION dim            8  value   -4.0263231971214807E-003
 DIRECTION dim            9  value    3.9285968656253417E-003
 DIRECTION dim           10  value   -1.8897691569526309E-002
 DIRECTION dim           11  value   -3.8015388128054849E-002
 DIRECTION dim           12  value    4.2636012171965547E-002
 DIRECTION dim           13  value    3.2315841283142514E-002
 DIRECTION dim           14  value   -3.6148958178161106E-002
 DIRECTION dim           15  value   -7.7544356817275437E-002
 DIRECTION dim           16  value    1.7177356831864533E-002
 DIRECTION dim           17  value    2.8796680568736681E-002
 DIRECTION dim           18  value   -9.4211987736638733E-002
 DIRECTION dim           19  value    7.9539669283101543E-003
 DIRECTION dim           20  value    2.6161082036428394E-002
 DIRECTION dim           21  value   -5.6498365154713306E-002
 DIRECTION dim           22  value   -1.6047064553691884E-002
 DIRECTION dim           23  value   -4.1095014885939807E-002
 DIRECTION dim           24  value    3.6344534755028607E-002
 DIRECTION dim           25  value   -3.7043441164903712E-005
 DIRECTION dim           26  value   -3.5034259608677065E-002
 DIRECTION dim           27  value    4.5405207498567801E-003
 DIRECTION dim           28  value   -1.1484259848421260E-002
 DIRECTION dim           29  value    5.8708936693921271E-003
 DIRECTION dim           30  value    5.8709429814692016E-004
 DIRECTION dim           31  value   -3.2685041568406382E-002
 DIRECTION dim           32  value   -1.5525017242984359E-003
 DIRECTION dim           33  value   -8.5767986109494598E-002
 DIRECTION dim           34  value   0.11835088250087519     
 DIRECTION dim           35  value    5.7347016406740781E-003
 DIRECTION dim           36  value   -6.3933869401782001E-003
 DIRECTION dim           37  value   -6.7501139304228241E-002
 DIRECTION dim           38  value    4.7129117124509234E-002
 DIRECTION dim           39  value   -5.6202689672487212E-002
 DIRECTION dim           40  value   -5.0369500999675222E-002
 DIRECTION dim           41  value    5.7606114308857523E-002
 DIRECTION dim           42  value    1.1768841666275023E-002
 DIRECTION dim           43  value   0.16064752181501574     
 DIRECTION dim           44  value   0.17388911723670142     
 DIRECTION dim           45  value    5.2831600090275557E-002
 DIRECTION dim           46  value    3.0026531140444641E-003
 DIRECTION dim           47  value    5.3105123844397473E-002
 DIRECTION dim           48  value   -4.6996057101512292E-002
  Cycle:      4 Energy:      -425.883344  Gnorm:      4.995190  CPU:    0.039
 ALPHA BEFORE:   0.49308340813776036     
 XC BEFORE:   0.50564781108945478     
  ** Opt : line minimisation
left   ...       0.00000000    -425.88334411
centre ...       0.12327085    -431.67177297
right  ...       0.24654170    -434.73028631

left   ...       0.00000000    -425.88334411
centre ...       0.12327085    -431.67177297
right  ...       0.24654170    -434.73028631
new    ...       0.32301515    -435.09315950

__s__    ...       0.07647344

 ALPHA AFTER:   0.32301514663539105     
 XC AFTER:   0.50150010699581948     
 SANITY CHECK:   0.32301514663539738     
 DIRECTION dim            1  value   -1.2840587002927785E-002
 DIRECTION dim            2  value    1.4182209381813185E-002
 DIRECTION dim            3  value   -2.9879659254768334E-002
 DIRECTION dim            4  value    7.5037307683467350E-002
 DIRECTION dim            5  value    5.7877958228461021E-002
 DIRECTION dim            6  value   -6.4148036903743225E-002
 DIRECTION dim            7  value   -2.2370913056979774E-002
 DIRECTION dim            8  value   -1.8732180620767327E-002
 DIRECTION dim            9  value   -1.0485636243623970E-003
 DIRECTION dim           10  value   -2.7321742963925005E-002
 DIRECTION dim           11  value   -6.5433613158945372E-002
 DIRECTION dim           12  value    7.2390892460637846E-002
 DIRECTION dim           13  value    7.6649920770279420E-002
 DIRECTION dim           14  value   -5.9600317457537584E-003
 DIRECTION dim           15  value    4.8015236632614075E-002
 DIRECTION dim           16  value    1.8339145620125383E-002
 DIRECTION dim           17  value    3.6296197651092710E-002
 DIRECTION dim           18  value   -2.2358216951773632E-002
 DIRECTION dim           19  value    1.4474678855468949E-002
 DIRECTION dim           20  value    2.3849332527880553E-002
 DIRECTION dim           21  value   -9.1681155268099737E-002
 DIRECTION dim           22  value   -4.4318097409074018E-002
 DIRECTION dim           23  value   -3.1796199283852349E-002
 DIRECTION dim           24  value    3.4776855551106226E-002
 DIRECTION dim           25  value   -2.5498632609087701E-002
 DIRECTION dim           26  value   -4.4101682217598796E-002
 DIRECTION dim           27  value   -1.5713988933260901E-002
 DIRECTION dim           28  value   -6.5876723461112868E-002
 DIRECTION dim           29  value   -1.7459280555360179E-002
 DIRECTION dim           30  value   -7.9958553683822778E-002
 DIRECTION dim           31  value   -3.4921221218276427E-002
 DIRECTION dim           32  value    1.4383758188474365E-003
 DIRECTION dim           33  value   -6.1953602119205378E-002
 DIRECTION dim           34  value   0.11031608196427074     
 DIRECTION dim           35  value    5.2081674867873629E-002
 DIRECTION dim           36  value   -4.3160942769362000E-003
 DIRECTION dim           37  value   -6.7338896836456871E-002
 DIRECTION dim           38  value    6.3903669140148889E-002
 DIRECTION dim           39  value   -2.6797671765626172E-002
 DIRECTION dim           40  value   -3.4837621489364992E-002
 DIRECTION dim           41  value    5.8423400041901372E-002
 DIRECTION dim           42  value   -5.6029798208649687E-002
 DIRECTION dim           43  value   0.16599093955633254     
 DIRECTION dim           44  value   0.15649177476075657     
 DIRECTION dim           45  value    3.2165580503749812E-002
 DIRECTION dim           46  value   -1.3011656072664298E-002
 DIRECTION dim           47  value    6.6187478066271038E-002
 DIRECTION dim           48  value   -8.3725695447247755E-002
  Cycle:      5 Energy:      -435.093159  Gnorm:      4.405720  CPU:    0.042
 ALPHA BEFORE:   0.32301514663539105     
 XC BEFORE:   0.50150010699581948     
  ** Opt : line minimisation
left   ...       0.00000000    -435.09315950
centre ...       0.08075379    -437.82801325
right  ...       0.16150757    -439.62406366

left   ...       0.00000000    -435.09315950
centre ...       0.08075379    -437.82801325
right  ...       0.16150757    -439.62406366
new    ...       0.27562296    -440.86459816

__s__    ...       0.11411539

left   ...       0.08075379    -437.82801325
centre ...       0.16150757    -439.62406366
right  ...       0.27562296    -440.86459816
new    ...       0.31172111    -440.98112804

__s__    ...       0.03609815

 ALPHA AFTER:   0.31172111152652837     
 XC AFTER:   0.50035049965939504     
 SANITY CHECK:   0.31172111152654008     
 DIRECTION dim            1  value   -3.6879354458690958E-003
 DIRECTION dim            2  value    2.4402275965546106E-002
 DIRECTION dim            3  value   -4.2498682898665464E-002
 DIRECTION dim            4  value    8.0782055572033773E-002
 DIRECTION dim            5  value    6.9913749743941322E-002
 DIRECTION dim            6  value   -8.5157241253307328E-002
 DIRECTION dim            7  value   -3.0281524013996086E-002
 DIRECTION dim            8  value   -3.0255162586830718E-002
 DIRECTION dim            9  value   -4.0323418416557247E-002
 DIRECTION dim           10  value   -3.0892685957972274E-002
 DIRECTION dim           11  value   -8.0557542108919869E-002
 DIRECTION dim           12  value    5.3302488753957995E-002
 DIRECTION dim           13  value    2.2596144924979307E-002
 DIRECTION dim           14  value    5.5211387724541816E-002
 DIRECTION dim           15  value   -3.8312045763517225E-002
 DIRECTION dim           16  value    3.6649387368353995E-003
 DIRECTION dim           17  value    4.5377389063875215E-002
 DIRECTION dim           18  value   -2.3366183179939690E-002
 DIRECTION dim           19  value    2.3508922921549439E-002
 DIRECTION dim           20  value    2.7986402583847866E-002
 DIRECTION dim           21  value   -9.4148786689649724E-002
 DIRECTION dim           22  value   -5.8275611878133654E-002
 DIRECTION dim           23  value   -1.5335975456704058E-003
 DIRECTION dim           24  value   -4.2325069269051434E-003
 DIRECTION dim           25  value   -4.7778015353325445E-002
 DIRECTION dim           26  value   -4.8194449385275180E-002
 DIRECTION dim           27  value   -2.1310408534593386E-002
 DIRECTION dim           28  value   -6.9914912817258784E-002
 DIRECTION dim           29  value   -1.8525011065231099E-002
 DIRECTION dim           30  value   -7.0075239716473448E-002
 DIRECTION dim           31  value   -2.9877928870587839E-002
 DIRECTION dim           32  value    1.1688420681191492E-003
 DIRECTION dim           33  value   -3.8445560957202994E-002
 DIRECTION dim           34  value    8.6286910939492298E-002
 DIRECTION dim           35  value    5.0284815242828039E-002
 DIRECTION dim           36  value    2.4037389929666875E-003
 DIRECTION dim           37  value   -5.0455081163261042E-002
 DIRECTION dim           38  value    6.6444131192508776E-002
 DIRECTION dim           39  value    1.0766025112987791E-002
 DIRECTION dim           40  value    3.2996915851796448E-002
 DIRECTION dim           41  value   -1.6334504800994964E-002
 DIRECTION dim           42  value    5.6412804836565481E-002
 DIRECTION dim           43  value   0.14444373680440159     
 DIRECTION dim           44  value   0.12760724786152214     
 DIRECTION dim           45  value    2.6224859885377500E-002
 DIRECTION dim           46  value   -4.8400524002924841E-002
 DIRECTION dim           47  value    5.7238772343389803E-002
 DIRECTION dim           48  value  -0.11788401028132625     
  Cycle:      6 Energy:      -440.981128  Gnorm:      3.388529  CPU:    0.046
 ALPHA BEFORE:   0.31172111152652837     
 XC BEFORE:   0.50035049965939504     
  ** Opt : line minimisation
left   ...       0.00000000    -440.98112804
centre ...       0.07793028    -442.68663342
right  ...       0.15586056    -443.73603775

left   ...       0.00000000    -440.98112804
centre ...       0.07793028    -442.68663342
right  ...       0.15586056    -443.73603775
new    ...       0.24154142    -444.25052444

__s__    ...       0.08568086

left   ...       0.07793028    -442.68663342
centre ...       0.15586056    -443.73603775
right  ...       0.24154142    -444.25052444
new    ...       0.26453669    -444.28965683

__s__    ...       0.02299527

 ALPHA AFTER:   0.26453668755646881     
 XC AFTER:   0.50173143269282505     
 SANITY CHECK:   0.26453668755643822     
 DIRECTION dim            1  value    5.2201947721727295E-003
 DIRECTION dim            2  value    1.9640842569024493E-002
 DIRECTION dim            3  value   -2.2217254289287683E-002
 DIRECTION dim            4  value    6.0598112860486976E-002
 DIRECTION dim            5  value    5.9851590186760381E-002
 DIRECTION dim            6  value   -6.5774772371556905E-002
 DIRECTION dim            7  value   -2.6816811630240973E-002
 DIRECTION dim            8  value   -2.5424116396496568E-002
 DIRECTION dim            9  value   -6.2582626693419519E-002
 DIRECTION dim           10  value   -2.0158527716278504E-002
 DIRECTION dim           11  value   -5.7619019346869249E-002
 DIRECTION dim           12  value    1.6132169364887847E-002
 DIRECTION dim           13  value    1.6028129054381342E-002
 DIRECTION dim           14  value    2.0651848241940149E-002
 DIRECTION dim           15  value    1.8848786853473451E-002
 DIRECTION dim           16  value   -8.1655907079753055E-003
 DIRECTION dim           17  value    3.8409954443079014E-002
 DIRECTION dim           18  value   -4.1389149310134918E-002
 DIRECTION dim           19  value    2.6383500775447662E-002
 DIRECTION dim           20  value    2.8463388735109278E-002
 DIRECTION dim           21  value   -3.0812018819990038E-002
 DIRECTION dim           22  value   -4.2215811140526693E-002
 DIRECTION dim           23  value    2.7643838097741964E-002
 DIRECTION dim           24  value   -8.5397205604720500E-002
 DIRECTION dim           25  value   -3.7065000379298781E-002
 DIRECTION dim           26  value   -3.5604492536733569E-002
 DIRECTION dim           27  value   -2.0034912308944733E-002
 DIRECTION dim           28  value   -4.1108506270671905E-002
 DIRECTION dim           29  value   -9.4805369776065958E-003
 DIRECTION dim           30  value   -1.8571199408284070E-002
 DIRECTION dim           31  value   -1.1032489187190119E-002
 DIRECTION dim           32  value   -2.0702284585834623E-003
 DIRECTION dim           33  value    3.6707895771773587E-003
 DIRECTION dim           34  value    3.0829573611280282E-002
 DIRECTION dim           35  value    3.2116189344824908E-003
 DIRECTION dim           36  value    3.1909567650100362E-002
 DIRECTION dim           37  value   -2.2586173765230092E-002
 DIRECTION dim           38  value    2.8432643128768326E-002
 DIRECTION dim           39  value    5.4286949838894816E-002
 DIRECTION dim           40  value   -8.8772744888201624E-004
 DIRECTION dim           41  value   -1.0581886575498366E-002
 DIRECTION dim           42  value   -2.3154634262810104E-002
 DIRECTION dim           43  value    6.8917357102751500E-002
 DIRECTION dim           44  value    4.4539881740996268E-002
 DIRECTION dim           45  value   -2.7087537693948806E-003
 DIRECTION dim           46  value   -5.1739312561481468E-002
 DIRECTION dim           47  value    1.2953268310257005E-002
 DIRECTION dim           48  value   -9.4008765509070724E-002
  Cycle:      7 Energy:      -444.289657  Gnorm:      3.572728  CPU:    0.050
 ALPHA BEFORE:   0.26453668755646881     
 XC BEFORE:   0.50173143269282505     
  ** Opt : line minimisation
left   ...       0.00000000    -444.28965683
centre ...       0.06613417    -446.07433490
right  ...       0.13226834    -447.49596770

left   ...       0.00000000    -444.28965683
centre ...       0.06613417    -446.07433490
right  ...       0.13226834    -447.49596770
new    ...       0.35817311    -449.52253114

__s__    ...       0.22590477

left   ...       0.06613417    -446.07433490
centre ...       0.13226834    -447.49596770
right  ...       0.35817311    -449.52253114
new    ...       0.34980271    -449.52861819

__s__    ...      -0.00837040

 ALPHA AFTER:   0.34980271139353414     
 XC AFTER:   0.50582127602226301     
 SANITY CHECK:   0.34980271139354080     
 DIRECTION dim            1  value    1.1691857141829687E-002
 DIRECTION dim            2  value    2.1287973075000684E-002
 DIRECTION dim            3  value    2.9677257955463797E-003
 DIRECTION dim            4  value    8.5045480338199808E-002
 DIRECTION dim            5  value    8.3636409030285616E-002
 DIRECTION dim            6  value   -6.8016133288525626E-002
 DIRECTION dim            7  value   -2.4019408515095628E-002
 DIRECTION dim            8  value   -2.8330735009631854E-002
 DIRECTION dim            9  value   -7.3977388879392786E-002
 DIRECTION dim           10  value   -2.0165359507178213E-002
 DIRECTION dim           11  value   -6.7545594240825027E-002
 DIRECTION dim           12  value   -1.8141190040300945E-002
 DIRECTION dim           13  value    1.9343113224374858E-002
 DIRECTION dim           14  value    1.7548418008010526E-002
 DIRECTION dim           15  value    3.1730696213704591E-002
 DIRECTION dim           16  value   -1.1823420793403861E-002
 DIRECTION dim           17  value    4.2354906763155308E-002
 DIRECTION dim           18  value   -9.1887363046711454E-002
 DIRECTION dim           19  value    3.6476846269094906E-002
 DIRECTION dim           20  value    2.8887446829577054E-002
 DIRECTION dim           21  value   -3.0543727842443899E-002
 DIRECTION dim           22  value   -5.6619120703791340E-002
 DIRECTION dim           23  value    2.1613852659675879E-002
 DIRECTION dim           24  value   -6.0500145687174996E-002
 DIRECTION dim           25  value   -3.9400288776871371E-002
 DIRECTION dim           26  value   -4.5490807517450070E-002
 DIRECTION dim           27  value   -4.5276996024170568E-003
 DIRECTION dim           28  value   -4.6511279315988460E-002
 DIRECTION dim           29  value   -6.9315609468899256E-003
 DIRECTION dim           30  value   -2.9659105082966153E-003
 DIRECTION dim           31  value   -4.8129952777275411E-003
 DIRECTION dim           32  value   -8.1846177078792638E-003
 DIRECTION dim           33  value    2.9708894293231990E-002
 DIRECTION dim           34  value    1.2908128271881827E-002
 DIRECTION dim           35  value    2.1379178247349515E-002
 DIRECTION dim           36  value   -9.5559348298873442E-002
 DIRECTION dim           37  value   -4.0878029679023958E-002
 DIRECTION dim           38  value    1.7128217475743890E-002
 DIRECTION dim           39  value    6.3703849419868522E-002
 DIRECTION dim           40  value   -2.7690947678976549E-002
 DIRECTION dim           41  value   -1.4738927152608168E-003
 DIRECTION dim           42  value   -2.5634363813694883E-002
 DIRECTION dim           43  value    6.6546883540272980E-002
 DIRECTION dim           44  value    2.3636740332980508E-002
 DIRECTION dim           45  value   -3.4371649500374253E-002
 DIRECTION dim           46  value   -7.1599991440538649E-002
 DIRECTION dim           47  value   -1.9875193448948645E-003
 DIRECTION dim           48  value  -0.12252297861904660     
  Cycle:      8 Energy:      -449.528618  Gnorm:      2.813873  CPU:    0.054
 ALPHA BEFORE:   0.34980271139353414     
 XC BEFORE:   0.50582127602226301     
  ** Opt : line minimisation
left   ...       0.00000000    -449.52861819
centre ...       0.08745068    -450.91422366
right  ...       0.17490136    -451.99230116

left   ...       0.00000000    -449.52861819
centre ...       0.08745068    -450.91422366
right  ...       0.17490136    -451.99230116
new    ...       0.43774524    -453.48155416

__s__    ...       0.26284388

left   ...       0.08745068    -450.91422366
centre ...       0.17490136    -451.99230116
right  ...       0.43774524    -453.48155416
new    ...       0.45528516    -453.48864741

__s__    ...       0.01753992

 ALPHA AFTER:   0.45528515704590650     
 XC AFTER:   0.50844895379059518     
 SANITY CHECK:   0.45528515704588490     
 DIRECTION dim            1  value    5.7714988676148427E-003
 DIRECTION dim            2  value    3.0307109195919233E-003
 DIRECTION dim            3  value    4.2791136593896251E-004
 DIRECTION dim            4  value    6.6857317299320998E-002
 DIRECTION dim            5  value    5.6980648545782900E-002
 DIRECTION dim            6  value   -5.3338173532311003E-002
 DIRECTION dim            7  value    1.8475165072714371E-002
 DIRECTION dim            8  value   -1.3444499328997770E-002
 DIRECTION dim            9  value   -3.1618766444681742E-003
 DIRECTION dim           10  value   -3.9500138463331377E-004
 DIRECTION dim           11  value   -3.1255689631582519E-002
 DIRECTION dim           12  value   -4.1143997790314475E-002
 DIRECTION dim           13  value    1.7045945378386220E-003
 DIRECTION dim           14  value    2.6024745227112497E-002
 DIRECTION dim           15  value    9.5327319592583282E-003
 DIRECTION dim           16  value   -3.8386621641027996E-003
 DIRECTION dim           17  value    7.5973170760284779E-003
 DIRECTION dim           18  value   -3.6601612913936134E-002
 DIRECTION dim           19  value    1.2421074196085723E-002
 DIRECTION dim           20  value   -2.9745375155716854E-003
 DIRECTION dim           21  value   -9.9755998426176336E-003
 DIRECTION dim           22  value   -3.2026396149925862E-002
 DIRECTION dim           23  value    9.1606249710171738E-003
 DIRECTION dim           24  value   -2.3690843936355975E-002
 DIRECTION dim           25  value   -1.8729114994411229E-002
 DIRECTION dim           26  value   -2.9242029067181128E-002
 DIRECTION dim           27  value    1.9644518684769664E-002
 DIRECTION dim           28  value   -1.9051789830520728E-002
 DIRECTION dim           29  value    9.8200242433637078E-005
 DIRECTION dim           30  value   -2.1215926124543639E-002
 DIRECTION dim           31  value    1.0939591306179039E-003
 DIRECTION dim           32  value   -1.3016705622920991E-002
 DIRECTION dim           33  value    4.3441339337230545E-002
 DIRECTION dim           34  value   -3.2600409312102414E-003
 DIRECTION dim           35  value   -2.0713650434550680E-003
 DIRECTION dim           36  value   -3.3567219009221771E-002
 DIRECTION dim           37  value   -6.8835783406086454E-002
 DIRECTION dim           38  value   -7.1334592530105569E-003
 DIRECTION dim           39  value   -3.9294369630175692E-002
 DIRECTION dim           40  value   -2.7447057176913016E-002
 DIRECTION dim           41  value    2.0688606996910448E-002
 DIRECTION dim           42  value   -1.1738987039109241E-002
 DIRECTION dim           43  value    4.0781917096306172E-002
 DIRECTION dim           44  value   -9.9287705474292599E-003
 DIRECTION dim           45  value   -4.7799842563278100E-002
 DIRECTION dim           46  value   -5.5470053820981649E-002
 DIRECTION dim           47  value   -1.2848351061688549E-002
 DIRECTION dim           48  value   -7.0623234693877851E-002
  Cycle:      9 Energy:      -453.488647  Gnorm:      1.874484  CPU:    0.059
 ALPHA BEFORE:   0.45528515704590650     
 XC BEFORE:   0.50844895379059518     
  ** Opt : line minimisation
left   ...       0.00000000    -453.48864741
centre ...       0.11382129    -454.27618056
right  ...       0.22764258    -454.85128634

left   ...       0.00000000    -453.48864741
centre ...       0.11382129    -454.27618056
right  ...       0.22764258    -454.85128634
new    ...       0.47888094    -455.39109611

__s__    ...       0.25123836

left   ...       0.11382129    -454.27618056
centre ...       0.22764258    -454.85128634
right  ...       0.47888094    -455.39109611
new    ...       0.48830574    -455.39197349

__s__    ...       0.00942481

 ALPHA AFTER:   0.48830574263140286     
 XC AFTER:   0.50593893842825710     
 SANITY CHECK:   0.48830574263139559     
 DIRECTION dim            1  value   -5.1402536222737005E-003
 DIRECTION dim            2  value    5.4708358748954454E-003
 DIRECTION dim            3  value   -2.4506344347266826E-002
 DIRECTION dim            4  value    1.3119757474618270E-003
 DIRECTION dim            5  value   -4.8106919042613314E-003
 DIRECTION dim            6  value    3.9232998150728101E-004
 DIRECTION dim            7  value   -2.1701627386650220E-002
 DIRECTION dim            8  value   -5.6373720346931276E-003
 DIRECTION dim            9  value   -8.3930709805804578E-003
 DIRECTION dim           10  value    1.3979919547716685E-002
 DIRECTION dim           11  value    5.5467827518033965E-003
 DIRECTION dim           12  value   -9.8079139875633711E-003
 DIRECTION dim           13  value   -2.1548116005812686E-002
 DIRECTION dim           14  value    2.6365153340507218E-002
 DIRECTION dim           15  value   -2.5219202680071724E-002
 DIRECTION dim           16  value   -4.8145998353683389E-003
 DIRECTION dim           17  value   -7.1020119570088958E-003
 DIRECTION dim           18  value    1.4577872626000042E-002
 DIRECTION dim           19  value   -9.9061697345064429E-003
 DIRECTION dim           20  value   -7.2308695542831229E-003
 DIRECTION dim           21  value    2.2687724449437091E-002
 DIRECTION dim           22  value    1.0572675362523234E-002
 DIRECTION dim           23  value    3.9923658274471528E-003
 DIRECTION dim           24  value    3.5469593167284201E-003
 DIRECTION dim           25  value   -6.5152829653562601E-003
 DIRECTION dim           26  value   -5.8509023280583754E-003
 DIRECTION dim           27  value    1.4844735997759351E-003
 DIRECTION dim           28  value    1.1771596562862204E-003
 DIRECTION dim           29  value    3.1278798960684326E-003
 DIRECTION dim           30  value    1.4589665547221616E-003
 DIRECTION dim           31  value    1.4790730684457567E-003
 DIRECTION dim           32  value   -9.5979979523572352E-003
 DIRECTION dim           33  value    8.7854104657857767E-003
 DIRECTION dim           34  value    1.0884983746941131E-002
 DIRECTION dim           35  value   -7.4325065531356416E-003
 DIRECTION dim           36  value    3.1174727350241859E-002
 DIRECTION dim           37  value    2.1765160372861143E-002
 DIRECTION dim           38  value   -1.1599713320509660E-002
 DIRECTION dim           39  value   -1.1587381891515418E-002
 DIRECTION dim           40  value    1.5790385372520832E-003
 DIRECTION dim           41  value   -2.4194054217418080E-003
 DIRECTION dim           42  value   -5.1604598155141294E-003
 DIRECTION dim           43  value    9.1587863820651765E-004
 DIRECTION dim           44  value   -1.4664750850757014E-002
 DIRECTION dim           45  value   -2.2664202194226032E-002
 DIRECTION dim           46  value   -2.3721230243804244E-002
 DIRECTION dim           47  value   -1.1691981167170025E-002
 DIRECTION dim           48  value   -3.9048308555059211E-003
  Cycle:     10 Energy:      -455.391973  Gnorm:      1.736579  CPU:    0.064
 ALPHA BEFORE:   0.48830574263140286     
 XC BEFORE:   0.50593893842825710     
  ** Opt : line minimisation
left   ...       0.00000000    -455.39197349
centre ...       0.12207644    -456.09882608
right  ...       0.24415287    -456.57626426

left   ...       0.00000000    -455.39197349
centre ...       0.12207644    -456.09882608
right  ...       0.24415287    -456.57626426
new    ...       0.43716997    -456.81150645

__s__    ...       0.19301710

 ALPHA AFTER:   0.43716997299457588     
 XC AFTER:   0.50477008591368278     
 SANITY CHECK:   0.43716997299458016     
 DIRECTION dim            1  value   -2.6736797739510270E-003
 DIRECTION dim            2  value    3.9860838305103685E-003
 DIRECTION dim            3  value   -1.7082323510022680E-002
 DIRECTION dim            4  value    4.9753769779297668E-003
 DIRECTION dim            5  value   -7.0140591203740731E-003
 DIRECTION dim            6  value    1.5505716356810353E-002
 DIRECTION dim            7  value   -2.2590345977229500E-002
 DIRECTION dim            8  value   -6.8703417095857646E-003
 DIRECTION dim            9  value   -1.4194028745873048E-002
 DIRECTION dim           10  value    1.1787463206745610E-002
 DIRECTION dim           11  value    8.6688505319861449E-003
 DIRECTION dim           12  value   -3.0629073546478747E-002
 DIRECTION dim           13  value   -1.9359034585448374E-002
 DIRECTION dim           14  value    1.6691804182296491E-002
 DIRECTION dim           15  value   -2.1936390744829733E-002
 DIRECTION dim           16  value   -3.6287417202159741E-003
 DIRECTION dim           17  value   -8.4379979052897573E-003
 DIRECTION dim           18  value    1.0559836247724618E-002
 DIRECTION dim           19  value   -8.8789422943725774E-003
 DIRECTION dim           20  value   -2.0578379607271227E-005
 DIRECTION dim           21  value    1.2024024469288300E-002
 DIRECTION dim           22  value    2.0403849662469810E-002
 DIRECTION dim           23  value    4.9992780969048984E-004
 DIRECTION dim           24  value    1.9792655652257945E-002
 DIRECTION dim           25  value   -7.0937862340112075E-003
 DIRECTION dim           26  value   -1.3075178789705374E-002
 DIRECTION dim           27  value    1.2365010373376881E-002
 DIRECTION dim           28  value    6.3851962695648818E-004
 DIRECTION dim           29  value    5.4687708521813025E-003
 DIRECTION dim           30  value    8.8523742207092734E-003
 DIRECTION dim           31  value    5.4497182154064714E-003
 DIRECTION dim           32  value   -1.6746422906437408E-002
 DIRECTION dim           33  value    1.2748433123858368E-002
 DIRECTION dim           34  value    5.8421219774948737E-003
 DIRECTION dim           35  value   -8.2962165502161594E-004
 DIRECTION dim           36  value   -2.5724961355242756E-002
 DIRECTION dim           37  value    1.4912727644326964E-002
 DIRECTION dim           38  value   -2.0065651899308253E-002
 DIRECTION dim           39  value   -2.5618502832158493E-003
 DIRECTION dim           40  value   -1.5765923957159221E-002
 DIRECTION dim           41  value    7.5660382545253944E-003
 DIRECTION dim           42  value    1.4431159788397879E-003
 DIRECTION dim           43  value    6.0684255658097739E-004
 DIRECTION dim           44  value   -3.5840408015853503E-002
 DIRECTION dim           45  value   -4.8692912724257090E-002
 DIRECTION dim           46  value   -3.4189234560035128E-002
 DIRECTION dim           47  value   -2.2975383892638084E-002
 DIRECTION dim           48  value   -7.5513781185970524E-003
  Cycle:     11 Energy:      -456.811506  Gnorm:      1.908897  CPU:    0.067
 ALPHA BEFORE:   0.43716997299457588     
 XC BEFORE:   0.50477008591368278     
  ** Opt : line minimisation
left   ...       0.00000000    -456.81150645
centre ...       0.10929249    -457.56380374
right  ...       0.21858499    -458.17013182

left   ...       0.00000000    -456.81150645
centre ...       0.10929249    -457.56380374
right  ...       0.21858499    -458.17013182
new    ...       0.61791878    -458.99052078

__s__    ...       0.39933380

left   ...       0.10929249    -457.56380374
centre ...       0.21858499    -458.17013182
right  ...       0.61791878    -458.99052078
new    ...       0.56780965    -459.01889747

__s__    ...      -0.05010913

 ALPHA AFTER:   0.56780964837571402     
 XC AFTER:   0.50613806780851789     
 SANITY CHECK:   0.56780964837572223     
 DIRECTION dim            1  value    2.4092262235211495E-003
 DIRECTION dim            2  value    4.3055463995326166E-003
 DIRECTION dim            3  value   -7.9020559079488167E-003
 DIRECTION dim            4  value    7.3310360086289040E-004
 DIRECTION dim            5  value   -8.4650637834736836E-003
 DIRECTION dim            6  value    9.8252452099291347E-003
 DIRECTION dim            7  value   -4.2567217788696751E-003
 DIRECTION dim            8  value   -9.7257695926144493E-003
 DIRECTION dim            9  value   -1.2228204988586342E-002
 DIRECTION dim           10  value    1.0299891771581585E-002
 DIRECTION dim           11  value    1.0361491817788107E-002
 DIRECTION dim           12  value   -4.8733731317074681E-002
 DIRECTION dim           13  value   -2.1278504301925912E-002
 DIRECTION dim           14  value    1.0958830613777427E-002
 DIRECTION dim           15  value   -1.1986844856869940E-002
 DIRECTION dim           16  value   -4.4947819075828064E-003
 DIRECTION dim           17  value   -9.5601452910458323E-003
 DIRECTION dim           18  value    1.8326506127409294E-002
 DIRECTION dim           19  value   -1.1204190961435694E-002
 DIRECTION dim           20  value    1.2641053214674411E-002
 DIRECTION dim           21  value    1.4813329207990772E-002
 DIRECTION dim           22  value    3.1854091298066392E-002
 DIRECTION dim           23  value    1.4774366178028105E-002
 DIRECTION dim           24  value   -2.0192620919755953E-002
 DIRECTION dim           25  value   -1.6587512142871179E-002
 DIRECTION dim           26  value   -2.5462984910549991E-002
 DIRECTION dim           27  value    1.6413579909542651E-002
 DIRECTION dim           28  value    1.0633938165629632E-003
 DIRECTION dim           29  value    8.8524683964570604E-003
 DIRECTION dim           30  value    8.2004987125596784E-003
 DIRECTION dim           31  value    1.0130979684222873E-002
 DIRECTION dim           32  value   -2.7424560135762485E-002
 DIRECTION dim           33  value    2.9614756238240794E-002
 DIRECTION dim           34  value    1.7052429563543879E-002
 DIRECTION dim           35  value   -1.9849713343362253E-002
 DIRECTION dim           36  value   -5.4070338995550263E-003
 DIRECTION dim           37  value   -1.8500658082839991E-002
 DIRECTION dim           38  value   -3.3655660153906350E-002
 DIRECTION dim           39  value   -5.1204689974880865E-003
 DIRECTION dim           40  value   -2.9385241457232689E-002
 DIRECTION dim           41  value    1.9504916930403737E-002
 DIRECTION dim           42  value   -1.5735881335729281E-002
 DIRECTION dim           43  value    9.4276269848903096E-003
 DIRECTION dim           44  value   -6.3120573876734642E-002
 DIRECTION dim           45  value   -8.0075343403874386E-002
 DIRECTION dim           46  value   -5.6268002091412188E-002
 DIRECTION dim           47  value   -3.5161338210125896E-002
 DIRECTION dim           48  value   -1.1111224577796307E-002
  Cycle:     12 Energy:      -459.018897  Gnorm:      1.705407  CPU:    0.074
 ALPHA BEFORE:   0.56780964837571402     
 XC BEFORE:   0.50613806780851789     
  ** Opt : line minimisation
left   ...       0.00000000    -459.01889747
centre ...       0.14195241    -459.86319372
right  ...       0.28390482    -460.52032195

left   ...       0.00000000    -459.01889747
centre ...       0.14195241    -459.86319372
right  ...       0.28390482    -460.52032195
new    ...       0.71130935    -461.07241379

__s__    ...       0.42740452

left   ...       0.14195241    -459.86319372
centre ...       0.28390482    -460.52032195
right  ...       0.71130935    -461.07241379
new    ...       0.60778834    -461.17045248

__s__    ...      -0.10352101

 ALPHA AFTER:   0.60778833764436124     
 XC AFTER:   0.50838535714669730     
 SANITY CHECK:   0.60778833764434792     
 DIRECTION dim            1  value    3.6974867712819353E-003
 DIRECTION dim            2  value   -7.2424615940140545E-003
 DIRECTION dim            3  value    4.8037352057615709E-003
 DIRECTION dim            4  value   -8.2907240375329450E-004
 DIRECTION dim            5  value    4.4650783380132545E-003
 DIRECTION dim            6  value   -1.1264686184296619E-002
 DIRECTION dim            7  value    9.5161814914909073E-003
 DIRECTION dim            8  value   -1.1745808198780735E-002
 DIRECTION dim            9  value   -5.1228497422262844E-003
 DIRECTION dim           10  value   -4.7332693441631780E-003
 DIRECTION dim           11  value    6.4945776240680521E-005
 DIRECTION dim           12  value   -2.4096177019060902E-002
 DIRECTION dim           13  value   -1.3967069910160090E-002
 DIRECTION dim           14  value    6.5782687610939933E-003
 DIRECTION dim           15  value   -1.1448476936087866E-002
 DIRECTION dim           16  value   -1.0929100550573653E-002
 DIRECTION dim           17  value   -7.8262368854512335E-003
 DIRECTION dim           18  value   -1.8127138531061300E-002
 DIRECTION dim           19  value   -2.3260751497578619E-003
 DIRECTION dim           20  value    1.4699284459779288E-002
 DIRECTION dim           21  value    2.5401097320207879E-002
 DIRECTION dim           22  value    1.9291751629627433E-002
 DIRECTION dim           23  value    1.6175032360729640E-002
 DIRECTION dim           24  value   -3.5731935248652022E-002
 DIRECTION dim           25  value   -2.5965199606550096E-002
 DIRECTION dim           26  value   -2.2563984713633384E-002
 DIRECTION dim           27  value   -6.9747677817541490E-003
 DIRECTION dim           28  value   -8.1623693223990164E-003
 DIRECTION dim           29  value    6.1535451338739170E-003
 DIRECTION dim           30  value    2.6571789079900478E-003
 DIRECTION dim           31  value    5.8182372762596440E-003
 DIRECTION dim           32  value   -2.0615524169185762E-002
 DIRECTION dim           33  value    2.8553195189622793E-002
 DIRECTION dim           34  value    2.0708329120074524E-002
 DIRECTION dim           35  value   -2.0625591254018437E-002
 DIRECTION dim           36  value   -2.2013482004271050E-002
 DIRECTION dim           37  value   -2.3910699034569299E-002
 DIRECTION dim           38  value   -1.2069781635996313E-002
 DIRECTION dim           39  value    2.8116325655982995E-002
 DIRECTION dim           40  value    1.8990132702735238E-004
 DIRECTION dim           41  value    1.6543296541392020E-002
 DIRECTION dim           42  value    1.9794612327153953E-002
 DIRECTION dim           43  value    1.0184704304168572E-002
 DIRECTION dim           44  value   -3.5820159529298089E-002
 DIRECTION dim           45  value   -5.4501431604761848E-002
 DIRECTION dim           46  value   -3.8230235821433318E-002
 DIRECTION dim           47  value   -1.6499063221650390E-002
 DIRECTION dim           48  value   -8.7280809570303777E-003
  Cycle:     13 Energy:      -461.170452  Gnorm:      1.881883  CPU:    0.080
 ALPHA BEFORE:   0.60778833764436124     
 XC BEFORE:   0.50838535714669730     
  ** Opt : line minimisation
left   ...       0.00000000    -461.17045248
centre ...       0.15194708    -462.21962335
right  ...       0.30389417    -462.84410245

left   ...       0.00000000    -461.17045248
centre ...       0.15194708    -462.21962335
right  ...       0.30389417    -462.84410245
new    ...       0.45134803    -462.83483164

__s__    ...       0.14745386

 ALPHA AFTER:   0.30389416882218062     
 XC AFTER:   0.50884103880102061     
 SANITY CHECK:   0.30389416882221543     
 DIRECTION dim            1  value    1.4994748207554018E-003
 DIRECTION dim            2  value   -2.1949946263287431E-002
 DIRECTION dim            3  value   -2.0468435968388137E-002
 DIRECTION dim            4  value    5.0452193420334928E-003
 DIRECTION dim            5  value    1.8170902042774852E-002
 DIRECTION dim            6  value   -3.6953176766084096E-002
 DIRECTION dim            7  value    5.7170712515546077E-003
 DIRECTION dim            8  value   -2.5269133373364075E-002
 DIRECTION dim            9  value    6.0006718693264753E-003
 DIRECTION dim           10  value   -1.5974647085706502E-002
 DIRECTION dim           11  value   -6.4607660316688435E-003
 DIRECTION dim           12  value   -4.8380294836481708E-003
 DIRECTION dim           13  value   -1.0794423132710222E-002
 DIRECTION dim           14  value    1.2134138846847544E-002
 DIRECTION dim           15  value    4.5712724464910988E-003
 DIRECTION dim           16  value   -2.2470894613979803E-002
 DIRECTION dim           17  value    2.4574497671799971E-003
 DIRECTION dim           18  value    2.0590248570896662E-002
 DIRECTION dim           19  value    7.3317228830502498E-003
 DIRECTION dim           20  value    1.5025600859031771E-002
 DIRECTION dim           21  value    4.0429810255770041E-002
 DIRECTION dim           22  value    2.5115306714770240E-002
 DIRECTION dim           23  value    2.2064162291522617E-002
 DIRECTION dim           24  value   -5.9229799277204648E-002
 DIRECTION dim           25  value   -4.4816229842439964E-002
 DIRECTION dim           26  value   -3.5965977981972680E-002
 DIRECTION dim           27  value   -3.3095552697642958E-002
 DIRECTION dim           28  value   -1.8658881593855592E-002
 DIRECTION dim           29  value    7.2593793191624923E-003
 DIRECTION dim           30  value   -1.0042589336294507E-002
 DIRECTION dim           31  value    4.1692939106747857E-003
 DIRECTION dim           32  value   -2.5244776637717497E-002
 DIRECTION dim           33  value    5.2001398614986774E-002
 DIRECTION dim           34  value    2.8998604420877403E-002
 DIRECTION dim           35  value   -2.4635856996150899E-002
 DIRECTION dim           36  value   -2.1067159304047782E-002
 DIRECTION dim           37  value   -8.0724634110991636E-003
 DIRECTION dim           38  value   -1.4752143262230916E-002
 DIRECTION dim           39  value    2.7346360705556162E-002
 DIRECTION dim           40  value   -3.6541443575967649E-003
 DIRECTION dim           41  value    3.4773074792393263E-002
 DIRECTION dim           42  value    8.4472863628549492E-003
 DIRECTION dim           43  value    1.2156931060514556E-002
 DIRECTION dim           44  value   -3.2542422318647374E-002
 DIRECTION dim           45  value   -6.6431812886753552E-002
 DIRECTION dim           46  value   -4.3066464262455390E-002
 DIRECTION dim           47  value   -1.2502758372603616E-002
 DIRECTION dim           48  value   -1.3097110800948305E-002
  Cycle:     14 Energy:      -462.844102  Gnorm:      1.616850  CPU:    0.085
 ALPHA BEFORE:   0.30389416882218062     
 XC BEFORE:   0.50884103880102061     
  ** Opt : line minimisation
left   ...       0.00000000    -462.84410245
centre ...       0.07597354    -463.25282143
right  ...       0.15194708    -463.56668159

left   ...       0.00000000    -462.84410245
centre ...       0.07597354    -463.25282143
right  ...       0.15194708    -463.56668159
new    ...       0.36533463    -463.96980281

__s__    ...       0.21338754

left   ...       0.07597354    -463.25282143
centre ...       0.15194708    -463.56668159
right  ...       0.36533463    -463.96980281
new    ...       0.38054991    -463.97342838

__s__    ...       0.01521529

 ALPHA AFTER:   0.38054991213468575     
 XC AFTER:   0.50840881392549409     
 SANITY CHECK:   0.38054991213474559     
 DIRECTION dim            1  value   -1.1357902386625134E-003
 DIRECTION dim            2  value   -5.0064131664680567E-003
 DIRECTION dim            3  value   -1.4877249202378134E-002
 DIRECTION dim            4  value    6.6299078559628813E-003
 DIRECTION dim            5  value    1.0648200189386990E-002
 DIRECTION dim            6  value   -9.4334041340084045E-003
 DIRECTION dim            7  value   -9.4208585937507732E-003
 DIRECTION dim            8  value   -1.1939873164722203E-002
 DIRECTION dim            9  value    1.3481408704065700E-002
 DIRECTION dim           10  value   -7.8543670185946390E-003
 DIRECTION dim           11  value   -3.3425952843586810E-003
 DIRECTION dim           12  value    1.7141537585321061E-002
 DIRECTION dim           13  value    5.8289727181967685E-003
 DIRECTION dim           14  value    1.1636762339079267E-002
 DIRECTION dim           15  value   -1.5547092526326238E-003
 DIRECTION dim           16  value   -8.4367758832704590E-003
 DIRECTION dim           17  value    1.0268345873008121E-002
 DIRECTION dim           18  value    3.5286710117738186E-002
 DIRECTION dim           19  value    1.9322264885580285E-002
 DIRECTION dim           20  value   -9.7072723841314639E-003
 DIRECTION dim           21  value   -8.4587910521072146E-003
 DIRECTION dim           22  value    9.7957417733545099E-005
 DIRECTION dim           23  value    4.7273348112633964E-003
 DIRECTION dim           24  value   -2.2994247201531910E-003
 DIRECTION dim           25  value   -9.9809633124204426E-003
 DIRECTION dim           26  value   -1.2560948688484503E-002
 DIRECTION dim           27  value   -2.3057697099045430E-002
 DIRECTION dim           28  value   -7.9993123117456152E-003
 DIRECTION dim           29  value   -3.9055411432724655E-004
 DIRECTION dim           30  value   -1.2324319596774469E-002
 DIRECTION dim           31  value   -2.4777516751629102E-003
 DIRECTION dim           32  value    4.7121106942944204E-005
 DIRECTION dim           33  value    1.3054559931068717E-002
 DIRECTION dim           34  value   -6.1099183314541165E-003
 DIRECTION dim           35  value    5.0845186948424081E-003
 DIRECTION dim           36  value    6.1515267458652576E-003
 DIRECTION dim           37  value    2.1797515616395667E-002
 DIRECTION dim           38  value   -4.8745708274271198E-003
 DIRECTION dim           39  value   -1.6799413003012079E-002
 DIRECTION dim           40  value   -1.0174402754554349E-002
 DIRECTION dim           41  value    1.3434463646399188E-002
 DIRECTION dim           42  value   -6.2500033255706005E-003
 DIRECTION dim           43  value   -1.9661637157950338E-004
 DIRECTION dim           44  value    1.4538880571663970E-002
 DIRECTION dim           45  value    1.0010444663403076E-002
 DIRECTION dim           46  value    2.0488356702322436E-003
 DIRECTION dim           47  value    5.1634731614560560E-003
 DIRECTION dim           48  value   -2.7558169493958865E-003
  Cycle:     15 Energy:      -463.973428  Gnorm:      1.404716  CPU:    0.092
 ALPHA BEFORE:   0.38054991213468575     
 XC BEFORE:   0.50840881392549409     
  ** Opt : line minimisation
left   ...       0.00000000    -463.97342838
centre ...       0.09513748    -464.35556613
right  ...       0.19027496    -464.62660161

left   ...       0.00000000    -463.97342838
centre ...       0.09513748    -464.35556613
right  ...       0.19027496    -464.62660161
new    ...       0.37479539    -464.83914489

__s__    ...       0.18452044

left   ...       0.09513748    -464.35556613
centre ...       0.19027496    -464.62660161
right  ...       0.37479539    -464.83914489
new    ...       0.37744575    -464.83922223

__s__    ...       0.00265036

 ALPHA AFTER:   0.37744575088143811     
 XC AFTER:   0.50850014934526500     
 SANITY CHECK:   0.37744575088193744     
 DIRECTION dim            1  value    2.4198290630506936E-004
 DIRECTION dim            2  value   -2.9569654669366718E-003
 DIRECTION dim            3  value   -8.1168682501095088E-003
 DIRECTION dim            4  value    1.0034729983869461E-002
 DIRECTION dim            5  value    1.4837811404492925E-002
 DIRECTION dim            6  value   -5.5434508692005016E-003
 DIRECTION dim            7  value   -7.4469491985338660E-003
 DIRECTION dim            8  value   -1.6104438076199785E-002
 DIRECTION dim            9  value    1.3167676968414135E-002
 DIRECTION dim           10  value   -1.1221826379925859E-002
 DIRECTION dim           11  value   -2.0609522978309062E-003
 DIRECTION dim           12  value    1.6987168342409435E-002
 DIRECTION dim           13  value    9.3297038899850578E-003
 DIRECTION dim           14  value    1.7271489572084235E-002
 DIRECTION dim           15  value   -2.0567376521613230E-002
 DIRECTION dim           16  value   -9.4435151969477302E-003
 DIRECTION dim           17  value    7.2046194490126871E-003
 DIRECTION dim           18  value    7.0179424239443788E-003
 DIRECTION dim           19  value    2.6327955627815081E-002
 DIRECTION dim           20  value   -8.6000522155489437E-003
 DIRECTION dim           21  value    1.0183325175623138E-002
 DIRECTION dim           22  value   -1.3619842304726708E-003
 DIRECTION dim           23  value    4.1852929404047291E-003
 DIRECTION dim           24  value    2.1086170184127910E-003
 DIRECTION dim           25  value   -1.3886080362076510E-002
 DIRECTION dim           26  value   -2.2350504774946094E-002
 DIRECTION dim           27  value   -3.0857913029808545E-002
 DIRECTION dim           28  value   -1.2499124528169644E-002
 DIRECTION dim           29  value   -8.1989664390736696E-004
 DIRECTION dim           30  value   -1.2233310620444899E-002
 DIRECTION dim           31  value   -4.2837156517698460E-003
 DIRECTION dim           32  value    9.1126051673849889E-004
 DIRECTION dim           33  value    1.0857890976103811E-002
 DIRECTION dim           34  value   -5.6016955795115788E-003
 DIRECTION dim           35  value    2.4564594772980967E-003
 DIRECTION dim           36  value   -3.4100942817835503E-002
 DIRECTION dim           37  value    1.4377971607198912E-002
 DIRECTION dim           38  value    4.3448531501959972E-003
 DIRECTION dim           39  value    6.0155895876307097E-003
 DIRECTION dim           40  value   -1.1675421662995710E-002
 DIRECTION dim           41  value    1.6499781817320789E-002
 DIRECTION dim           42  value    1.6719192403596685E-002
 DIRECTION dim           43  value   -9.4067706376944915E-004
 DIRECTION dim           44  value    2.0912429059647169E-002
 DIRECTION dim           45  value    1.2219278529592145E-002
 DIRECTION dim           46  value    9.8161736090009383E-004
 DIRECTION dim           47  value    1.0793804812623372E-002
 DIRECTION dim           48  value   -3.6820410127272134E-004
  Cycle:     16 Energy:      -464.839222  Gnorm:      1.018780  CPU:    0.098
 ALPHA BEFORE:   0.37744575088143811     
 XC BEFORE:   0.50850014934526500     
  ** Opt : line minimisation
left   ...       0.00000000    -464.83922223
centre ...       0.09436144    -465.04655577
right  ...       0.18872288    -465.21880926

left   ...       0.00000000    -464.83922223
centre ...       0.09436144    -465.04655577
right  ...       0.18872288    -465.21880926
new    ...       0.60488475    -465.56141001

__s__    ...       0.41616188

left   ...       0.09436144    -465.04655577
centre ...       0.18872288    -465.21880926
right  ...       0.60488475    -465.56141001
new    ...       0.60647853    -465.56144269

__s__    ...       0.00159378

 ALPHA AFTER:   0.60647852970038107     
 XC AFTER:   0.51014257742004621     
 SANITY CHECK:   0.60647852970038263     
 DIRECTION dim            1  value    2.7081388612266552E-003
 DIRECTION dim            2  value   -4.4609620716923749E-005
 DIRECTION dim            3  value   -8.2225150378705154E-003
 DIRECTION dim            4  value    7.1025704617928738E-003
 DIRECTION dim            5  value    1.3241946372750193E-002
 DIRECTION dim            6  value   -1.1815642464573518E-002
 DIRECTION dim            7  value    8.3449025840512427E-003
 DIRECTION dim            8  value   -1.2393659144737751E-002
 DIRECTION dim            9  value    1.0572417694137982E-002
 DIRECTION dim           10  value   -1.1678459628559359E-002
 DIRECTION dim           11  value    1.0852677043093836E-003
 DIRECTION dim           12  value    1.1898813341481705E-002
 DIRECTION dim           13  value    1.1806709925573040E-002
 DIRECTION dim           14  value    1.1090732874973820E-002
 DIRECTION dim           15  value   -8.3817873922957028E-003
 DIRECTION dim           16  value   -7.8283472771377063E-003
 DIRECTION dim           17  value    7.9102171805013454E-003
 DIRECTION dim           18  value   -4.2143432093157832E-003
 DIRECTION dim           19  value    2.3367799411560829E-002
 DIRECTION dim           20  value    4.6551946886421672E-004
 DIRECTION dim           21  value    4.1941892510603263E-003
 DIRECTION dim           22  value   -3.3236242263379270E-003
 DIRECTION dim           23  value   -1.8632374074928374E-003
 DIRECTION dim           24  value   -4.2032810337079727E-003
 DIRECTION dim           25  value   -1.6139061792851350E-002
 DIRECTION dim           26  value   -2.7560826816463359E-002
 DIRECTION dim           27  value   -2.5340843063318751E-002
 DIRECTION dim           28  value   -1.0053402021933680E-002
 DIRECTION dim           29  value   -8.3279406306115264E-004
 DIRECTION dim           30  value   -1.3989265568400990E-002
 DIRECTION dim           31  value   -4.8323083315125305E-003
 DIRECTION dim           32  value    2.4390847037162387E-003
 DIRECTION dim           33  value    1.0837937600695310E-002
 DIRECTION dim           34  value   -7.0930801163747621E-005
 DIRECTION dim           35  value   -4.4297547998771690E-003
 DIRECTION dim           36  value    3.5078731687160393E-003
 DIRECTION dim           37  value   -1.2535616284881210E-002
 DIRECTION dim           38  value    4.7615720158159323E-003
 DIRECTION dim           39  value    1.1478653120152175E-002
 DIRECTION dim           40  value   -4.6365995768793741E-003
 DIRECTION dim           41  value    1.6721600395463592E-002
 DIRECTION dim           42  value   -2.4965551578680131E-003
 DIRECTION dim           43  value    1.0208877382379084E-003
 DIRECTION dim           44  value    9.7321927482412890E-003
 DIRECTION dim           45  value    7.8106687898305150E-003
 DIRECTION dim           46  value   -8.3378916285199690E-004
 DIRECTION dim           47  value    9.6496248948832811E-003
 DIRECTION dim           48  value    4.8740076764554850E-003
  Cycle:     17 Energy:      -465.561443  Gnorm:      0.784477  CPU:    0.105
 ALPHA BEFORE:   0.60647852970038107     
 XC BEFORE:   0.51014257742004621     
  ** Opt : line minimisation
left   ...       0.00000000    -465.56144269
centre ...       0.15161963    -465.74496370
right  ...       0.30323926    -465.87135567

left   ...       0.00000000    -465.56144269
centre ...       0.15161963    -465.74496370
right  ...       0.30323926    -465.87135567
new    ...       0.56287196    -465.95513064

__s__    ...       0.25963269

left   ...       0.15161963    -465.74496370
centre ...       0.30323926    -465.87135567
right  ...       0.56287196    -465.95513064
new    ...       0.56291074    -465.95513045

__s__    ...       0.00003879

 ALPHA AFTER:   0.56287195547737834     
 XC AFTER:   0.51144348407663354     
 SANITY CHECK:   0.56287195547742619     
 DIRECTION dim            1  value    2.3111946579109735E-003
 DIRECTION dim            2  value    4.1233864316935374E-003
 DIRECTION dim            3  value    9.3892577434564577E-003
 DIRECTION dim            4  value    3.6569782003837066E-003
 DIRECTION dim            5  value    5.8269696659144672E-003
 DIRECTION dim            6  value   -4.1173415200341824E-003
 DIRECTION dim            7  value    4.2062765952080713E-003
 DIRECTION dim            8  value   -7.0255941296046131E-003
 DIRECTION dim            9  value    7.0328639109019818E-003
 DIRECTION dim           10  value   -5.7322471748558661E-003
 DIRECTION dim           11  value    5.8470452339075621E-003
 DIRECTION dim           12  value   -5.3187137108871687E-003
 DIRECTION dim           13  value    7.2389902432409038E-003
 DIRECTION dim           14  value    7.7312097059161885E-003
 DIRECTION dim           15  value    3.0141042740984818E-004
 DIRECTION dim           16  value   -7.1722914637843815E-003
 DIRECTION dim           17  value    9.9571659121089028E-003
 DIRECTION dim           18  value   -4.1618294644488914E-003
 DIRECTION dim           19  value    1.5906066188234497E-002
 DIRECTION dim           20  value    6.4940483353895595E-003
 DIRECTION dim           21  value   -3.2796986170191816E-005
 DIRECTION dim           22  value   -6.9059106658587287E-003
 DIRECTION dim           23  value   -3.1051218146486538E-003
 DIRECTION dim           24  value   -1.2110721057798438E-002
 DIRECTION dim           25  value   -1.7235098028931965E-002
 DIRECTION dim           26  value   -2.7811915075837541E-002
 DIRECTION dim           27  value   -1.0146840145044099E-002
 DIRECTION dim           28  value   -8.9109895889382413E-003
 DIRECTION dim           29  value   -1.0119023446391799E-003
 DIRECTION dim           30  value   -1.2175140036325530E-002
 DIRECTION dim           31  value   -4.9901609533946553E-003
 DIRECTION dim           32  value    1.5143576702667742E-003
 DIRECTION dim           33  value    4.6460627937000808E-003
 DIRECTION dim           34  value    9.2199943736065871E-003
 DIRECTION dim           35  value   -4.1215014772819610E-003
 DIRECTION dim           36  value   -7.7407048929708563E-003
 DIRECTION dim           37  value   -6.9499334888987229E-003
 DIRECTION dim           38  value   -4.7057432448463455E-004
 DIRECTION dim           39  value   -3.7291880695923037E-003
 DIRECTION dim           40  value    7.1109233707046006E-004
 DIRECTION dim           41  value    9.6961833266599132E-003
 DIRECTION dim           42  value    4.2293539340548334E-003
 DIRECTION dim           43  value   -3.1250861002267570E-003
 DIRECTION dim           44  value   -4.1025610284374601E-004
 DIRECTION dim           45  value   -2.1846062731022357E-003
 DIRECTION dim           46  value   -4.6965587758530311E-003
 DIRECTION dim           47  value    5.2527479248932855E-003
 DIRECTION dim           48  value    1.0178454618147384E-002
  Cycle:     18 Energy:      -465.955131  Gnorm:      0.908643  CPU:    0.111
 Perform trimming
 ALPHA BEFORE:   0.56287195547737834     
 XC BEFORE:   0.51144348407663354     
  ** Opt : line minimisation
left   ...       0.00000000    -465.95513064
centre ...       0.14071799    -466.18246460
right  ...       0.28143598    -466.35766674

left   ...       0.00000000    -465.95513064
centre ...       0.14071799    -466.18246460
right  ...       0.28143598    -466.35766674
new    ...       0.68399525    -466.56606169

__s__    ...       0.40255927

left   ...       0.14071799    -466.18246460
centre ...       0.28143598    -466.35766674
right  ...       0.68399525    -466.56606169
new    ...       0.67603949    -466.56621455

__s__    ...      -0.00795576

 ALPHA AFTER:   0.67603949246250894     
 XC AFTER:   0.51315608930861201     
 SANITY CHECK:   0.67603949246247530     
 DIRECTION dim            1  value    2.5332916953420899E-003
 DIRECTION dim            2  value    5.0014315306047656E-003
 DIRECTION dim            3  value    9.7664548818865134E-004
 DIRECTION dim            4  value    6.7202405150875288E-003
 DIRECTION dim            5  value    4.3879648759587147E-003
 DIRECTION dim            6  value   -1.0596343977112533E-003
 DIRECTION dim            7  value    5.6031401357943046E-004
 DIRECTION dim            8  value   -7.4167857295269063E-003
 DIRECTION dim            9  value    2.7582387714927166E-003
 DIRECTION dim           10  value    4.0859776154120449E-005
 DIRECTION dim           11  value    1.1566784053238783E-002
 DIRECTION dim           12  value   -1.3126050739911816E-002
 DIRECTION dim           13  value    7.2136220905852566E-003
 DIRECTION dim           14  value    1.4091538809333845E-002
 DIRECTION dim           15  value    7.2414834446866624E-003
 DIRECTION dim           16  value   -1.0088920748618550E-002
 DIRECTION dim           17  value    1.3980826492979126E-002
 DIRECTION dim           18  value   -2.5614479438033425E-003
 DIRECTION dim           19  value    2.6479254663828000E-002
 DIRECTION dim           20  value    1.1522121696119539E-002
 DIRECTION dim           21  value   -2.0843619914253384E-003
 DIRECTION dim           22  value   -1.7239235119220903E-002
 DIRECTION dim           23  value   -2.2017772621900369E-003
 DIRECTION dim           24  value   -1.4890990900791256E-003
 DIRECTION dim           25  value   -2.9660798424349769E-002
 DIRECTION dim           26  value   -4.4187113564904575E-002
 DIRECTION dim           27  value   -1.2826665478184103E-002
 DIRECTION dim           28  value   -1.3236521017249477E-002
 DIRECTION dim           29  value   -2.2619557562066094E-003
 DIRECTION dim           30  value   -1.3618562694385699E-002
[...]
centre ...       0.12351830    -475.56731055
right  ...       0.24703660    -475.56731090
new    ...       0.78153094    -475.56731158

__s__    ...       0.53449433

 ALPHA AFTER:   0.78153093623850001     
 XC AFTER:   0.49988164717320666     
 SANITY CHECK:   0.78153093623999903     
 DIRECTION dim            1  value    2.7874894280620386E-005
 DIRECTION dim            2  value   -1.0452460389833329E-006
 DIRECTION dim            3  value   -5.8039838981236487E-006
 DIRECTION dim            4  value   -2.2740131864560188E-006
 DIRECTION dim            5  value   -1.5471297842741527E-005
 DIRECTION dim            6  value   -3.6609493332664915E-006
 DIRECTION dim            7  value    1.3028668403201366E-005
 DIRECTION dim            8  value   -9.9224526258820491E-006
 DIRECTION dim            9  value    4.9503492892506441E-006
 DIRECTION dim           10  value    1.6922120334197591E-005
 DIRECTION dim           11  value   -5.6808602301344691E-006
 DIRECTION dim           12  value    1.2161593246256576E-005
 DIRECTION dim           13  value    3.1543423501482268E-005
 DIRECTION dim           14  value    3.5171587439959184E-006
 DIRECTION dim           15  value   -8.3677177103282748E-006
 DIRECTION dim           16  value    3.8938822961389965E-005
 DIRECTION dim           17  value   -7.9394977746806220E-006
 DIRECTION dim           18  value   -1.0355543625468246E-005
 DIRECTION dim           19  value   -2.7102589567666401E-006
 DIRECTION dim           20  value   -1.3734991177253034E-005
 DIRECTION dim           21  value   -9.1723245430607196E-006
 DIRECTION dim           22  value   -1.3671618827225692E-005
 DIRECTION dim           23  value   -6.1603622681614524E-006
 DIRECTION dim           24  value   -2.6901322682952087E-005
 DIRECTION dim           25  value   -3.2199169976474168E-005
 DIRECTION dim           26  value   -8.2067136527258654E-006
 DIRECTION dim           27  value    3.0655252065063697E-006
 DIRECTION dim           28  value   -2.8089264094843611E-005
 DIRECTION dim           29  value   -6.0050973374494360E-006
 DIRECTION dim           30  value    3.5921696348278009E-006
 DIRECTION dim           31  value    4.8437703874243749E-006
 DIRECTION dim           32  value   -1.5552370209559951E-005
 DIRECTION dim           33  value   -4.7125016827488730E-007
 DIRECTION dim           34  value    7.0782594177915888E-006
 DIRECTION dim           35  value   -8.6064502584638448E-006
 DIRECTION dim           36  value    8.2053258869786290E-007
 DIRECTION dim           37  value    2.3390343656742418E-005
 DIRECTION dim           38  value   -1.6844766127059969E-006
 DIRECTION dim           39  value   -3.6289563174647112E-006
 DIRECTION dim           40  value   -3.6088268810717726E-006
 DIRECTION dim           41  value   -2.3558514197337751E-005
 DIRECTION dim           42  value   -8.1443443855462105E-006
 DIRECTION dim           43  value   -2.1235202424199865E-006
 DIRECTION dim           44  value   -2.5653204019790553E-006
 DIRECTION dim           45  value    8.1808505692984940E-006
 DIRECTION dim           46  value   -3.0930376666157524E-005
 DIRECTION dim           47  value    2.5110288461641817E-007
 DIRECTION dim           48  value   -2.2556140639078146E-007
  Cycle:    166 Energy:      -475.567312  Gnorm:      0.001119  CPU:    0.769
 ALPHA BEFORE:   0.78153093623850001     
 XC BEFORE:   0.49988164717320666     
  ** Opt : line minimisation
left   ...       0.00000000    -475.56731158
centre ...       0.19538273    -475.56731202
right  ...       0.39076547    -475.56731223

left   ...       0.00000000    -475.56731158
centre ...       0.19538273    -475.56731202
right  ...       0.39076547    -475.56731223
new    ...       0.46736480    -475.56731224

__s__    ...       0.07659934

 ALPHA AFTER:   0.46736480328083990     
 XC AFTER:   0.49989326003861034     
 SANITY CHECK:   0.46736480327888197     
 DIRECTION dim            1  value    2.4847539485676253E-005
 DIRECTION dim            2  value   -6.3792905490661748E-007
 DIRECTION dim            3  value   -1.1975838714488146E-005
 DIRECTION dim            4  value    1.4696296288432168E-006
 DIRECTION dim            5  value   -1.0008874991644288E-005
 DIRECTION dim            6  value   -3.8800477997255527E-006
 DIRECTION dim            7  value    8.5240021799828534E-006
 DIRECTION dim            8  value   -9.0676828342400718E-006
 DIRECTION dim            9  value   -1.2071851893679226E-005
 DIRECTION dim           10  value    1.7983068692796853E-005
 DIRECTION dim           11  value   -3.2004802721507220E-006
 DIRECTION dim           12  value    2.7015200449843825E-006
 DIRECTION dim           13  value    3.1097677272341200E-005
 DIRECTION dim           14  value   -8.4993795890324243E-007
 DIRECTION dim           15  value   -4.1820606360928095E-006
 DIRECTION dim           16  value    3.7940380401970841E-005
 DIRECTION dim           17  value   -6.4367344411168495E-006
 DIRECTION dim           18  value   -9.8522171988445115E-006
 DIRECTION dim           19  value   -2.5326298915783814E-006
 DIRECTION dim           20  value   -1.4853520637733804E-005
 DIRECTION dim           21  value   -1.1055552687241185E-005
 DIRECTION dim           22  value   -1.1393858244911204E-005
 DIRECTION dim           23  value   -2.0866777447047034E-005
 DIRECTION dim           24  value    1.2783803510790309E-005
 DIRECTION dim           25  value   -2.8190226576733154E-005
 DIRECTION dim           26  value   -6.5383519886318483E-006
 DIRECTION dim           27  value   -3.2498848442936863E-007
 DIRECTION dim           28  value   -2.2929109796968179E-005
 DIRECTION dim           29  value   -7.8700343518610207E-006
 DIRECTION dim           30  value    4.0181822160169938E-006
 DIRECTION dim           31  value    5.9782562723035332E-006
 DIRECTION dim           32  value   -1.6726659853209516E-005
 DIRECTION dim           33  value   -4.2952459049217968E-006
 DIRECTION dim           34  value    1.2280782595555155E-005
 DIRECTION dim           35  value   -6.3891950665529993E-006
 DIRECTION dim           36  value   -1.8977219850995012E-005
 DIRECTION dim           37  value    1.9758558165966056E-005
 DIRECTION dim           38  value   -1.8247127974816230E-006
 DIRECTION dim           39  value    7.2704193029964578E-007
 DIRECTION dim           40  value   -3.1016618482151328E-006
 DIRECTION dim           41  value   -2.9417108379724066E-005
 DIRECTION dim           42  value   -7.0576585313794003E-006
 DIRECTION dim           43  value   -4.7397397037214208E-006
 DIRECTION dim           44  value   -1.3694145647340093E-005
 DIRECTION dim           45  value    1.8958172016927998E-005
 DIRECTION dim           46  value   -2.7215546810394788E-005
 DIRECTION dim           47  value    1.2534291503402137E-007
 DIRECTION dim           48  value   -1.6081522381728233E-007
  Cycle:    167 Energy:      -475.567312  Gnorm:      0.000975  CPU:    0.773
 ALPHA BEFORE:   0.46736480328083990     
 XC BEFORE:   0.49989326003861034     
  ** Opt : line minimisation
left   ...       0.00000000    -475.56731224
centre ...       0.11684120    -475.56731245
right  ...       0.23368240    -475.56731256

left   ...       0.00000000    -475.56731224
centre ...       0.11684120    -475.56731245
right  ...       0.23368240    -475.56731256
new    ...       0.31976339    -475.56731259

__s__    ...       0.08608099

 ALPHA AFTER:   0.31976339154419342     
 XC AFTER:   0.49989931114035113     
 SANITY CHECK:   0.31976339154332367     
 DIRECTION dim            1  value    1.8923685139765395E-005
 DIRECTION dim            2  value   -1.2967822813759334E-006
 DIRECTION dim            3  value   -8.7178529715394047E-006
 DIRECTION dim            4  value    4.9664828175670670E-006
 DIRECTION dim            5  value   -4.8245750684895775E-006
 DIRECTION dim            6  value   -1.3678552041267088E-005
 DIRECTION dim            7  value    6.9837023746331242E-006
 DIRECTION dim            8  value   -8.0807339773700461E-006
 DIRECTION dim            9  value   -1.0205174936754552E-005
 DIRECTION dim           10  value    1.5241098155565200E-005
 DIRECTION dim           11  value   -1.0057126340033808E-005
 DIRECTION dim           12  value   -6.1155928268584852E-006
 DIRECTION dim           13  value    2.5607039928696370E-005
 DIRECTION dim           14  value   -7.4055689858291533E-006
 DIRECTION dim           15  value    4.5987540718363737E-006
 DIRECTION dim           16  value    3.1036127913709131E-005
 DIRECTION dim           17  value   -4.3432383439943964E-006
 DIRECTION dim           18  value    8.4198811695032598E-006
 DIRECTION dim           19  value   -7.1462954543015131E-007
 DIRECTION dim           20  value   -1.6413946646668891E-005
 DIRECTION dim           21  value   -1.4232698397260268E-005
 DIRECTION dim           22  value   -6.4976580484713018E-006
 DIRECTION dim           23  value   -2.3468064667326462E-005
 DIRECTION dim           24  value    9.6203202393971859E-006
 DIRECTION dim           25  value   -2.0681013110471541E-005
 DIRECTION dim           26  value   -1.0006855417074755E-005
 DIRECTION dim           27  value   -5.5845175594266280E-007
 DIRECTION dim           28  value   -1.4926629151606993E-005
 DIRECTION dim           29  value   -7.2846645895904507E-006
 DIRECTION dim           30  value   -1.0709320257459448E-005
 DIRECTION dim           31  value    6.8521720726594962E-006
 DIRECTION dim           32  value   -1.3243955264454104E-005
 DIRECTION dim           33  value   -5.0735790830892710E-007
 DIRECTION dim           34  value    1.2561977384787132E-005
 DIRECTION dim           35  value   -1.2831878322411788E-005
 DIRECTION dim           36  value    4.3398422273804316E-006
 DIRECTION dim           37  value    1.3469734175059227E-005
 DIRECTION dim           38  value   -3.2102386043886590E-006
 DIRECTION dim           39  value   -2.2945869530082372E-005
 DIRECTION dim           40  value    5.8407330566642444E-009
 DIRECTION dim           41  value   -1.6134399829654982E-005
 DIRECTION dim           42  value   -3.2353385910894874E-006
 DIRECTION dim           43  value   -5.8267094798459477E-006
 DIRECTION dim           44  value   -1.9096297877130376E-005
 DIRECTION dim           45  value    2.3299014701886486E-005
 DIRECTION dim           46  value   -2.0920510977728886E-005
 DIRECTION dim           47  value   -3.6378109548627642E-009
 DIRECTION dim           48  value   -7.8863894593511086E-008
  Cycle:    168 Energy:      -475.567313  Gnorm:      0.000742  CPU:    0.777
 ALPHA BEFORE:   0.31976339154419342     
 XC BEFORE:   0.49989931114035113     
  ** Opt : line minimisation
left   ...       0.00000000    -475.56731259
centre ...       0.07994085    -475.56731268
right  ...       0.15988170    -475.56731277

left   ...       0.00000000    -475.56731259
centre ...       0.07994085    -475.56731268
right  ...       0.15988170    -475.56731277
new    ...       0.75251711    -475.56731306

__s__    ...       0.59263541

 ALPHA AFTER:   0.75251710892876922     
 XC AFTER:   0.49990717937728746     
 SANITY CHECK:   0.75251710892974266     
 DIRECTION dim            1  value    1.0455891092650867E-005
 DIRECTION dim            2  value   -2.5291641037245966E-006
 DIRECTION dim            3  value    1.0638379003471164E-007
 DIRECTION dim            4  value    6.6027402127857248E-006
 DIRECTION dim            5  value   -5.6304888047216663E-006
 DIRECTION dim            6  value   -1.6655180930520458E-006
 DIRECTION dim            7  value    6.0767507548865477E-006
 DIRECTION dim            8  value   -3.9741283019527408E-006
 DIRECTION dim            9  value   -1.5997295774934272E-005
 DIRECTION dim           10  value    9.3701233849450139E-006
 DIRECTION dim           11  value   -1.6472512897135005E-005
 DIRECTION dim           12  value   -6.6823790001060805E-006
 DIRECTION dim           13  value    1.5382201267330414E-005
 DIRECTION dim           14  value   -9.7438508495364987E-006
 DIRECTION dim           15  value   -6.3871098890021379E-006
 DIRECTION dim           16  value    1.8537573013861538E-005
 DIRECTION dim           17  value   -2.4354238169710305E-006
 DIRECTION dim           18  value    8.0665594485639455E-006
 DIRECTION dim           19  value    1.7225142469802857E-006
 DIRECTION dim           20  value   -1.8354989183704051E-005
 DIRECTION dim           21  value    2.9861167824778903E-006
 DIRECTION dim           22  value   -4.3709264620501736E-007
 DIRECTION dim           23  value   -1.3389555386892934E-005
 DIRECTION dim           24  value   -2.1490432254259641E-006
 DIRECTION dim           25  value   -1.0258498387339989E-005
 DIRECTION dim           26  value   -1.1961429147914883E-005
 DIRECTION dim           27  value   -1.2296485188733611E-006
 DIRECTION dim           28  value   -5.2807303073021596E-006
 DIRECTION dim           29  value   -3.6061249412968544E-006
 DIRECTION dim           30  value   -1.1895030683761035E-005
 DIRECTION dim           31  value    6.5018403730752521E-006
 DIRECTION dim           32  value   -9.7179905321807957E-006
 DIRECTION dim           33  value   -5.2742766744358479E-006
 DIRECTION dim           34  value    8.6964670206932184E-006
 DIRECTION dim           35  value   -9.8252847956094484E-006
 DIRECTION dim           36  value   -5.5162487802518866E-006
 DIRECTION dim           37  value    5.8358062800446869E-006
 DIRECTION dim           38  value   -1.0335808396644081E-005
 DIRECTION dim           39  value   -2.7806743532500940E-006
 DIRECTION dim           40  value    3.5383604805904490E-006
 DIRECTION dim           41  value   -5.7433263292877454E-007
 DIRECTION dim           42  value   -1.3184450831679354E-006
 DIRECTION dim           43  value   -5.0093651208838361E-006
 DIRECTION dim           44  value   -1.7209310008704607E-005
 DIRECTION dim           45  value    1.9557684006005962E-005
 DIRECTION dim           46  value   -1.2022347358651482E-005
 DIRECTION dim           47  value   -1.0025746987561908E-007
 DIRECTION dim           48  value    2.5826477753319398E-009


  **** Optimisation achieved ****


  Final energy =    -475.56731306 eV
  Final Gnorm  =       0.00047727

  Components of energy : 

--------------------------------------------------------------------------------
  Interatomic potentials     =          65.00975670 eV    
  Monopole - monopole (real) =        -237.15349483 eV    
  Monopole - monopole (recip)=        -303.42357493 eV    
  Monopole - monopole (total)=        -540.57706976 eV    
--------------------------------------------------------------------------------
  Total lattice energy       =        -475.56731306 eV    
--------------------------------------------------------------------------------
  Total lattice energy       =          -45884.9760 kJ/(mole unit cells)
--------------------------------------------------------------------------------

  Final fractional coordinates of atoms :

--------------------------------------------------------------------------------
   No.  Atomic        x           y          z          Radius
        Label       (Frac)      (Frac)     (Frac)       (Angs) 
--------------------------------------------------------------------------------
     1  O     c     0.500000    0.500000    0.750000    0.000000
     2  O     c     0.499907    0.000087    0.750091    0.000000
     3  O     c     0.999905    0.666837    0.583395    0.000000
     4  O     c     0.999918    0.333502    0.916725    0.000000
     5  O     c     0.999885    0.000188    0.250062    0.000000
     6  O     c     0.499907    0.166875    0.083402    0.000000
     7  O     c     0.499901    0.666872    0.083375    0.000000
     8  O     c     0.499874    0.333536    0.416703    0.000000
     9  O     c     0.499876    0.833542    0.416738    0.000000
    10  Sr    c     0.999869    0.500214    0.250065    0.000000
    11  Sr    c     0.999868    0.833493    0.916728    0.000000
    12  Sr    c     0.999881    0.166826    0.583396    0.000000
    13  Ti    c     0.499906    0.666811    0.583386    0.000000
    14  Ti    c     0.499919    0.333475    0.916721    0.000000
    15  Ti    c     0.499875    0.000210    0.250060    0.000000
--------------------------------------------------------------------------------

  Final Cartesian lattice vectors (Angstroms) :

        3.956495   -0.000000    0.000001
       -0.000000    5.539096   -0.791307
        0.000001   -1.582614    8.704289


  Final cell parameters and derivatives :

--------------------------------------------------------------------------------
       a            3.956495 Angstrom     dE/de1(xx)     0.000324 eV/strain
       b            5.595333 Angstrom     dE/de2(yy)     0.000570 eV/strain
       c            8.846994 Angstrom     dE/de3(zz)     0.000011 eV/strain
       alpha      108.435124 Degrees      dE/de4(yz)    -0.000512 eV/strain
       beta        89.999981 Degrees      dE/de5(xz)     0.000078 eV/strain
       gamma       90.000013 Degrees      dE/de6(xy)    -0.000049 eV/strain
--------------------------------------------------------------------------------

  Primitive cell volume =           185.803197 Angs**3

  Density of cell =      4.919944 g/cm**3

  Non-primitive cell volume =           185.803197 Angs**3


  Final internal derivatives :

--------------------------------------------------------------------------------
   No.  Atomic          a             b             c           Radius
        Label          (eV)          (eV)          (eV)        (eV/Angs)
--------------------------------------------------------------------------------
      1 O     c       0.000000      0.000000      0.000000      0.000000
      2 O     c       0.001045      0.004619      0.000207      0.000000
      3 O     c      -0.002630      0.003565      0.000362      0.000000
      4 O     c      -0.003203      0.003994     -0.007073      0.000000
      5 O     c       0.000434      0.000990      0.000675      0.000000
      6 O     c       0.001545      0.001789      0.002636      0.000000
      7 O     c       0.001912      0.006141      0.005017      0.000000
      8 O     c      -0.003478      0.003612     -0.000739      0.000000
      9 O     c      -0.004868      0.000814      0.004303      0.000000
     10 Sr    c      -0.003270      0.000679      0.007325      0.000000
     11 Sr    c      -0.004463      0.003681      0.000212      0.000000
     12 Sr    c      -0.002670      0.002376     -0.000465      0.000000
     13 Ti    c       0.000926      0.001700     -0.006776      0.000000
     14 Ti    c       0.001567     -0.002715      0.002644      0.000000
     15 Ti    c      -0.004418      0.007665      0.000589      0.000000
--------------------------------------------------------------------------------
  Maximum abs         0.004868      0.007665      0.007325      0.000000
--------------------------------------------------------------------------------


  Time to end of optimisation =       0.7816 seconds

 Exiting ------OPTIONS------

  Peak dynamic memory used =       0.55 MB 


  Timing analysis for GULP :

--------------------------------------------------------------------------------
  Task / Subroutine                                          Time (Seconds)
--------------------------------------------------------------------------------
  Calculation of reciprocal space energy and derivatives          0.0929
  Calculation of real space energy and derivatives                0.6654
  Global summation overhead                                       0.0005
--------------------------------------------------------------------------------
  Total CPU time                                                  0.7817
--------------------------------------------------------------------------------


  Job Finished at 13:26.37 21st February   2020                               

