********************************************************************************
*                       GENERAL UTILITY LATTICE PROGRAM                        *
*                                 Julian Gale                                  *
*                       Curtin Institute for Computation                       *
*                           Department of Chemistry                            *
*                    Curtin University, Western Australia                      *
********************************************************************************
* Version = 5.1.1 * Last modified =  25th August 2019                          *
********************************************************************************
*  optimise     - perform optimisation run                                     *
*  conp         - constant pressure calculation                                *
*  nosymmetry   - turn off symmetry after initial structure generation         *
*  full         - generate full unit cell when symmetry is removed             *
*  conjugate    - use conjugate gradients minimiser                            *
********************************************************************************
* ASE calculation                                                              *
********************************************************************************


  Job Started  at 13:26.23 21st February   2020                               

  Number of CPUs =     1


  Total number of configurations input =      1

********************************************************************************
*  Input for Configuration =   1                                               *
********************************************************************************

  Formula = O9Sr3Ti3                                                    

  Number of irreducible atoms/shells =      15


  Total number atoms/shells =      15

  Dimensionality = 3               :  Bulk   



  Cartesian lattice vectors (Angstroms) :

        4.000000    0.000000    0.000000
        0.000000    8.000000    0.000000
        0.000000    0.000000   10.000000

  Cell parameters (Angstroms/Degrees):

  a =       4.0000    alpha =  90.0000
  b =       8.0000    beta  =  90.0000
  c =      10.0000    gamma =  90.0000

  Initial cell volume =         320.000000 Angs**3

  Temperature of configuration =  0.000     K 

  Pressure of configuration =         0.000 GPa 

  Fractional coordinates of asymmetric unit :

--------------------------------------------------------------------------------
   No.  Atomic       x           y          z         Charge      Occupancy
        Label      (Frac)      (Frac)     (Frac)        (e)         (Frac)  
--------------------------------------------------------------------------------
      1 O     c    0.500000    0.250000    0.600000    -2.00000    1.000000    
      2 O     c    0.000000 *  0.750000 *  0.800000 *  -2.00000    1.000000    
      3 O     c    0.500000 *  0.500000 *  0.800000 *  -2.00000    1.000000    
      4 O     c    0.500000 *  0.250000 *  0.000000 *  -2.00000    1.000000    
      5 O     c    0.500000 *  0.500000 *  0.200000 *  -2.00000    1.000000    
      6 O     c    0.000000 *  0.500000 *  0.200000 *  -2.00000    1.000000    
      7 O     c    0.000000 *  0.250000 *  0.600000 *  -2.00000    1.000000    
      8 O     c    0.500000 *  0.250000 *  0.400000 *  -2.00000    1.000000    
      9 O     c    0.500000 *  0.500000 *  0.400000 *  -2.00000    1.000000    
     10 Sr    c    0.250000 *  0.875000 *  0.500000 *   2.00000    1.000000    
     11 Sr    c    0.250000 *  0.125000 *  0.900000 *   2.00000    1.000000    
     12 Sr    c    0.250000 *  0.625000 *  0.900000 *   2.00000    1.000000    
     13 Ti    c    0.750000 *  0.875000 *  0.700000 *   4.00000    1.000000    
     14 Ti    c    0.750000 *  0.375000 *  0.100000 *   4.00000    1.000000    
     15 Ti    c    0.250000 *  0.125000 *  0.500000 *   4.00000    1.000000    
--------------------------------------------------------------------------------



********************************************************************************
*  General input information                                                   *
********************************************************************************

  Species output for all configurations : 

--------------------------------------------------------------------------------
  Species    Type    Atomic    Atomic    Charge       Radii (Angs)     Library
                     Number     Mass       (e)     Cova   Ionic  VDW   Symbol
--------------------------------------------------------------------------------
    O        Core        8      16.00  -2.000000   0.730  0.000  1.360          
    Sr       Core       38      87.62   2.000000   1.120  0.000  1.670          
    Ti       Core       22      47.88   4.000000   1.470  0.000  2.190          
--------------------------------------------------------------------------------


  Lattice summation method               =    Ewald          (3-D)
                                         =    Parry          (2-D)
                                         =    Saunders et al (1-D)
  Accuracy factor for lattice sums       =   12.000


  Time limit = Infinity

  Maximum range for interatomic potentials =    100000.000000 Angstroms

  General interatomic potentials :

--------------------------------------------------------------------------------
Atom  Types   Potential      Parameter       Value         Units   Cutoffs(Ang)
  1     2                                                            Min /  Max 
--------------------------------------------------------------------------------
O    c Sr   c Buckingham    Buckingham A     1952.3900    eV        0.000 10.000
                            Buckingham rho  0.33685000    Ang       
                            Buckingham C     19.220000    eV*Ang^6  
--------------------------------------------------------------------------------
O    c Ti   c Buckingham    Buckingham A     4590.7279    eV        0.000 10.000
                            Buckingham rho  0.26100000    Ang       
                            Buckingham C     0.0000000    eV*Ang^6  
--------------------------------------------------------------------------------
O    c O    c Buckingham    Buckingham A     1388.7700    eV        0.000 10.000
                            Buckingham rho  0.36262000    Ang       
                            Buckingham C     175.00000    eV*Ang^6  
--------------------------------------------------------------------------------
 Calling ------OPTIONS------

********************************************************************************
*  Output for configuration   1                                                *
********************************************************************************


  Components of energy : 

--------------------------------------------------------------------------------
  Interatomic potentials     =          97.01435912 eV    
  Monopole - monopole (real) =        -115.35329340 eV    
  Monopole - monopole (recip)=        -197.84378280 eV    
  Monopole - monopole (total)=        -313.19707620 eV    
--------------------------------------------------------------------------------
  Total lattice energy       =        -216.18271708 eV    
--------------------------------------------------------------------------------
  Total lattice energy       =          -20858.3275 kJ/(mole unit cells)
--------------------------------------------------------------------------------


  Number of variables =       48

  Maximum number of calculations  =          1000
  Maximum Hessian update interval =            10
  Maximum step size               =   1.000000000
  Maximum parameter tolerance     =   0.000010000
  Maximum function  tolerance     =   0.000010000
  Maximum gradient  tolerance     =   0.001000000
  Maximum gradient  component     =   0.010000000

  Cell parameters to be optimised using strains

  Conjugate gradient optimiser to be used

  Lower half triangular hessian to be used

  Start of bulk optimisation :

  Cycle:      0 Energy:      -216.182717  Gnorm:     26.153688  CPU:    0.011
 Perform trimming
 ALPHA BEFORE:    1.0000000000000000     
 XC BEFORE:    0.0000000000000000     
  ** Opt : line minimisation
left   ...       0.00000000    -216.18271708
centre ...       0.25000000    -273.30560253
right  ...       0.50000000    -308.48502498

left   ...       0.00000000    -216.18271708
centre ...       0.25000000    -273.30560253
right  ...       0.50000000    -308.48502498
new    ...       0.77579616    -328.26969713

__s__    ...       0.27579616

left   ...       0.25000000    -273.30560253
centre ...       0.50000000    -308.48502498
right  ...       0.77579616    -328.26969713
new    ...       0.91129767    -332.98357959

__s__    ...       0.13550152

left   ...       0.50000000    -308.48502498
centre ...       0.77579616    -328.26969713
right  ...       0.91129767    -332.98357959
new    ...       1.03717483    -335.07537576

__s__    ...       0.12587716

left   ...       0.77579616    -328.26969713
centre ...       0.91129767    -332.98357959
right  ...       1.03717483    -335.07537576
new    ...       1.09375665    -335.36627627

__s__    ...       0.05658182

 ALPHA AFTER:    1.0937566518055146     
 XC AFTER:   -8.9946979428079527E-003
 SANITY CHECK:    1.0937566518055146     
 DIRECTION dim            1  value   -8.2236738199123072E-003
 DIRECTION dim            2  value    4.9509749972930506E-002
 DIRECTION dim            3  value   -3.2402069914732122E-002
 DIRECTION dim            4  value    7.7585473504105809E-003
 DIRECTION dim            5  value   -1.2196358017993217E-005
 DIRECTION dim            6  value   -1.4420527918450161E-003
 DIRECTION dim            7  value    8.4515327422482849E-003
 DIRECTION dim            8  value   -1.0462424438453116E-003
 DIRECTION dim            9  value    1.2292042223891695E-002
 DIRECTION dim           10  value    1.1579436225225904E-003
 DIRECTION dim           11  value    2.6765564723227023E-003
 DIRECTION dim           12  value   -5.9006298792273912E-002
 DIRECTION dim           13  value   -1.1579436225225921E-003
 DIRECTION dim           14  value   -1.4022052616544172E-003
 DIRECTION dim           15  value   -3.7966423883035845E-002
 DIRECTION dim           16  value    1.3928562750301189E-003
 DIRECTION dim           17  value   -4.4702404487228141E-002
 DIRECTION dim           18  value    1.5471467042251217E-002
 DIRECTION dim           19  value   -1.1607217774946047E-003
 DIRECTION dim           20  value   -6.4869457071941028E-002
 DIRECTION dim           21  value   -2.3512438369845585E-002
 DIRECTION dim           22  value   -1.5588979801826384E-004
 DIRECTION dim           23  value    3.7343911802346544E-002
 DIRECTION dim           24  value    3.5920925175816860E-002
 DIRECTION dim           25  value    2.5134527337422239E-004
 DIRECTION dim           26  value   -3.7784399285702840E-002
 DIRECTION dim           27  value   -3.2181813118730120E-002
 DIRECTION dim           28  value   -7.0881179903122529E-003
 DIRECTION dim           29  value    3.4117029397827932E-003
 DIRECTION dim           30  value   -1.2541364705356713E-002
 DIRECTION dim           31  value    2.2114818321136684E-004
 DIRECTION dim           32  value   -1.7243150786309180E-002
 DIRECTION dim           33  value    4.2153202778657757E-002
 DIRECTION dim           34  value    7.5705940175005242E-004
 DIRECTION dim           35  value   -2.6307970551953767E-002
 DIRECTION dim           36  value    2.4714666220170396E-002
 DIRECTION dim           37  value   -2.8354437037268741E-003
 DIRECTION dim           38  value    2.6703863065448960E-002
 DIRECTION dim           39  value    5.8633809890084994E-002
 DIRECTION dim           40  value    2.0242141384698127E-003
 DIRECTION dim           41  value   0.12245165470677878     
 DIRECTION dim           42  value   -2.6650689179843440E-002
 DIRECTION dim           43  value    5.0470618610346338E-002
 DIRECTION dim           44  value   -2.4883651295192454E-002
 DIRECTION dim           45  value    2.1933664490819970E-002
 DIRECTION dim           46  value   -5.2459678175681397E-003
 DIRECTION dim           47  value    2.1634246898045062E-003
 DIRECTION dim           48  value   -2.9629898278048798E-003
  Cycle:      1 Energy:      -335.366276  Gnorm:     30.937696  CPU:    0.025
 Perform trimming
 ALPHA BEFORE:    1.0937566518055146     
 XC BEFORE:   -8.9946979428079527E-003
  ** Opt : line minimisation
left   ...       0.00000000    -335.36627627
centre ...       0.27343916    -382.69078566
right  ...       0.54687833    -368.36733129

left   ...       0.00000000    -335.36627627
centre ...       0.27343916    -382.69078566
right  ...       0.54687833    -368.36733129
new    ...       0.34662715    -380.85510697

__s__    ...      -0.20025117

left   ...       0.00000000    -335.36627627
centre ...       0.27343916    -382.69078566
right  ...       0.34662715    -380.85510697
new    ...       0.28809559    -382.54073890

__s__    ...      -0.05853156

left   ...       0.00000000    -335.36627627
centre ...       0.27343916    -382.69078566
right  ...       0.28809559    -382.54073890
new    ...       0.27272246    -382.69476122

__s__    ...      -0.01537312

 ALPHA AFTER:   0.27272246406494022     
 XC AFTER:    2.3532535843602848E-002
 SANITY CHECK:   0.27272246406494016     
 DIRECTION dim            1  value   0.11926862679953447     
 DIRECTION dim            2  value   -4.3582375301726907E-002
 DIRECTION dim            3  value   0.10060299674586881     
 DIRECTION dim            4  value    5.1040541639226691E-003
 DIRECTION dim            5  value    1.9164176655947093E-002
 DIRECTION dim            6  value   -1.1208873719072208E-004
 DIRECTION dim            7  value    9.7373411377125428E-003
 DIRECTION dim            8  value   -1.1722905620681545E-002
 DIRECTION dim            9  value    1.9251329160518256E-002
 DIRECTION dim           10  value   -3.8940722012033531E-002
 DIRECTION dim           11  value    6.6438674237408138E-002
 DIRECTION dim           12  value   -4.4937741247259085E-002
 DIRECTION dim           13  value    5.0446297815049036E-002
 DIRECTION dim           14  value    6.2848935193171640E-002
 DIRECTION dim           15  value   -1.3696742629069815E-002
 DIRECTION dim           16  value    4.4560471281196914E-003
 DIRECTION dim           17  value   -4.0292399599226196E-002
 DIRECTION dim           18  value   -4.6796390413820551E-003
 DIRECTION dim           19  value    5.0177754216130157E-003
 DIRECTION dim           20  value   -3.9816781856371185E-002
 DIRECTION dim           21  value   -4.2856584619306075E-002
 DIRECTION dim           22  value   -2.4598186667353565E-003
 DIRECTION dim           23  value    1.9796483148897717E-002
 DIRECTION dim           24  value    9.5350364776654994E-003
 DIRECTION dim           25  value    6.6814877752317315E-004
 DIRECTION dim           26  value   -1.9623717791172800E-002
 DIRECTION dim           27  value   -2.3517846273360603E-002
 DIRECTION dim           28  value   -5.5836831831123221E-003
 DIRECTION dim           29  value    1.5932883758473116E-002
 DIRECTION dim           30  value   -1.5924143368965703E-002
 DIRECTION dim           31  value   -2.3333952322641886E-003
 DIRECTION dim           32  value   -1.6244654770445791E-002
 DIRECTION dim           33  value    2.2088111900204450E-002
 DIRECTION dim           34  value  -0.12143015393900658     
 DIRECTION dim           35  value    5.2713827277014708E-002
 DIRECTION dim           36  value  -0.10621667528221802     
 DIRECTION dim           37  value   -1.8612176548698341E-002
 DIRECTION dim           38  value  -0.10885213687450239     
 DIRECTION dim           39  value    4.5800869385479906E-002
 DIRECTION dim           40  value   -3.6631756610081383E-003
 DIRECTION dim           41  value    7.2330409603731577E-002
 DIRECTION dim           42  value    4.1814325164474864E-002
 DIRECTION dim           43  value    8.7384715427917953E-002
 DIRECTION dim           44  value   -6.6556987732700546E-003
 DIRECTION dim           45  value    1.8435729767194254E-002
 DIRECTION dim           46  value   -1.6237037396151330E-003
 DIRECTION dim           47  value    1.4059930540238009E-002
 DIRECTION dim           48  value   -1.3663258438116617E-002
  Cycle:      2 Energy:      -382.694761  Gnorm:      7.573414  CPU:    0.033
 ALPHA BEFORE:   0.27272246406494022     
 XC BEFORE:    2.3532535843602848E-002
  ** Opt : line minimisation
left   ...       0.00000000    -382.69476122
centre ...       0.06818062    -390.46325458
right  ...       0.13636123    -395.83270063

left   ...       0.00000000    -382.69476122
centre ...       0.06818062    -390.46325458
right  ...       0.13636123    -395.83270063
new    ...       0.25486989    -399.59975836

__s__    ...       0.11850866

left   ...       0.06818062    -390.46325458
centre ...       0.13636123    -395.83270063
right  ...       0.25486989    -399.59975836
new    ...       0.25879232    -399.61053818

__s__    ...       0.00392243

 ALPHA AFTER:   0.25879232074921438     
 XC AFTER:    2.4175745837975698E-002
 SANITY CHECK:   0.25879232074921299     
 DIRECTION dim            1  value    2.4854292140923436E-003
 DIRECTION dim            2  value    9.2667782981022420E-002
 DIRECTION dim            3  value   -8.2563277532471085E-002
 DIRECTION dim            4  value    1.0862817375863048E-002
 DIRECTION dim            5  value    6.3285583536826867E-002
 DIRECTION dim            6  value   -4.2740277820781519E-002
 DIRECTION dim            7  value    3.2431898708271650E-002
 DIRECTION dim            8  value   -6.1302510853934539E-002
 DIRECTION dim            9  value    8.7075123791882258E-002
 DIRECTION dim           10  value    2.1717444466423669E-002
 DIRECTION dim           11  value    3.5129754754471956E-002
 DIRECTION dim           12  value    3.9377130393333806E-002
 DIRECTION dim           13  value   -2.8947086947453439E-003
 DIRECTION dim           14  value    3.7946804132740083E-003
 DIRECTION dim           15  value    6.1656169038667961E-002
 DIRECTION dim           16  value    1.6239786023166961E-002
 DIRECTION dim           17  value  -0.12372707916461537     
 DIRECTION dim           18  value   -5.4917009463153324E-002
 DIRECTION dim           19  value   -1.3008819692030280E-002
 DIRECTION dim           20  value   -1.1701896715271562E-002
 DIRECTION dim           21  value   -3.2946659767213733E-002
 DIRECTION dim           22  value   -1.3164184048152410E-002
 DIRECTION dim           23  value    2.0520667698959272E-002
 DIRECTION dim           24  value    1.2630174394521939E-002
 DIRECTION dim           25  value    1.2971485733776704E-003
 DIRECTION dim           26  value   -3.3697978163933856E-002
 DIRECTION dim           27  value   -9.2537064670616107E-002
 DIRECTION dim           28  value   -1.2670267891584481E-002
 DIRECTION dim           29  value    6.0531113677651682E-002
 DIRECTION dim           30  value   -2.8363268090194512E-002
 DIRECTION dim           31  value   -1.2787144433166860E-002
 DIRECTION dim           32  value   -2.9464731536976853E-002
 DIRECTION dim           33  value    2.6815046454210029E-002
 DIRECTION dim           34  value    1.4542940221684703E-003
 DIRECTION dim           35  value   -4.3014442409240079E-002
 DIRECTION dim           36  value    9.9782046869253099E-002
 DIRECTION dim           37  value   -5.2237347056183554E-002
 DIRECTION dim           38  value    1.0439219466284979E-002
 DIRECTION dim           39  value   -9.4230669597530611E-002
 DIRECTION dim           40  value    1.6746007640266639E-002
 DIRECTION dim           41  value    8.6292899630729600E-002
 DIRECTION dim           42  value    9.4029703404428816E-002
 DIRECTION dim           43  value    8.1596087443024323E-002
 DIRECTION dim           44  value   -7.8063033608919377E-002
 DIRECTION dim           45  value    7.1937359427273750E-003
 DIRECTION dim           46  value    3.3103828396214563E-002
 DIRECTION dim           47  value    1.2515419600913324E-002
 DIRECTION dim           48  value   -1.8608415047288770E-002
  Cycle:      3 Energy:      -399.610538  Gnorm:      7.262433  CPU:    0.038
 ALPHA BEFORE:   0.25879232074921438     
 XC BEFORE:    2.4175745837975698E-002
  ** Opt : line minimisation
left   ...       0.00000000    -399.61053818
centre ...       0.06469808    -406.52160758
right  ...       0.12939616    -411.54042926

left   ...       0.00000000    -399.61053818
centre ...       0.06469808    -406.52160758
right  ...       0.12939616    -411.54042926
new    ...       0.26864628    -417.06703513

__s__    ...       0.13925012

left   ...       0.06469808    -406.52160758
centre ...       0.12939616    -411.54042926
right  ...       0.26864628    -417.06703513
new    ...       0.30585038    -417.55446414

__s__    ...       0.03720410

 ALPHA AFTER:   0.30585038211981608     
 XC AFTER:    5.4636138421776066E-002
 SANITY CHECK:   0.30585038211981608     
 DIRECTION dim            1  value    9.9592462081239425E-002
 DIRECTION dim            2  value    9.8555687441713891E-002
 DIRECTION dim            3  value    4.1620460978412654E-003
 DIRECTION dim            4  value    1.8575880636975264E-002
 DIRECTION dim            5  value   0.12840101427058109     
 DIRECTION dim            6  value   -2.9509899326432519E-002
 DIRECTION dim            7  value    5.3656715247904059E-002
 DIRECTION dim            8  value   -8.4789457851753278E-002
 DIRECTION dim            9  value    6.4754899028075796E-002
 DIRECTION dim           10  value    1.7036185366927983E-002
 DIRECTION dim           11  value   0.11187579536873657     
 DIRECTION dim           12  value   -2.1277582625763403E-002
 DIRECTION dim           13  value   -1.0049951933272062E-002
 DIRECTION dim           14  value   -6.3798074921504119E-003
 DIRECTION dim           15  value    5.6614456667850595E-002
 DIRECTION dim           16  value    2.6617572160994252E-002
 DIRECTION dim           17  value  -0.19111484214317709     
 DIRECTION dim           18  value   -3.9616102668557508E-002
 DIRECTION dim           19  value   -2.8718972150831211E-002
 DIRECTION dim           20  value   -9.1698189489573326E-003
 DIRECTION dim           21  value   -3.1066369008394889E-002
 DIRECTION dim           22  value   -2.9502307587990127E-002
 DIRECTION dim           23  value    2.6341135264145721E-002
 DIRECTION dim           24  value    6.3526554160262150E-002
 DIRECTION dim           25  value    2.1768769586209291E-003
 DIRECTION dim           26  value   -3.7568263711746111E-002
 DIRECTION dim           27  value  -0.15788273956948226     
 DIRECTION dim           28  value   -1.5200184157154803E-002
 DIRECTION dim           29  value   0.10181667436051232     
 DIRECTION dim           30  value   -4.5677590630935051E-002
 DIRECTION dim           31  value   -2.1358579255416833E-002
 DIRECTION dim           32  value   -3.5809828297128782E-002
 DIRECTION dim           33  value    4.9011100154925609E-002
 DIRECTION dim           34  value   -9.3633300475419359E-002
 DIRECTION dim           35  value   -5.6875749230611804E-002
 DIRECTION dim           36  value   -2.2526176699744438E-002
 DIRECTION dim           37  value   -6.7801621742095017E-002
 DIRECTION dim           38  value   -4.6307987684099688E-002
 DIRECTION dim           39  value   -2.1153375812302949E-003
 DIRECTION dim           40  value   -4.7940972536175963E-003
 DIRECTION dim           41  value   0.12662665675171439     
 DIRECTION dim           42  value   -6.1395477353110281E-002
 DIRECTION dim           43  value   0.16448775481206143     
 DIRECTION dim           44  value  -0.11789749881924691     
 DIRECTION dim           45  value    1.1943813328751267E-002
 DIRECTION dim           46  value    4.5364565206066507E-002
 DIRECTION dim           47  value    4.8804970210233507E-002
 DIRECTION dim           48  value   -5.8567871913643696E-002
  Cycle:      4 Energy:      -417.554464  Gnorm:      5.368166  CPU:    0.042
 ALPHA BEFORE:   0.30585038211981608     
 XC BEFORE:    5.4636138421776066E-002
  ** Opt : line minimisation
left   ...       0.00000000    -417.55446414
centre ...       0.07646260    -422.34999888
right  ...       0.15292519    -426.03916300

left   ...       0.00000000    -417.55446414
centre ...       0.07646260    -422.34999888
right  ...       0.15292519    -426.03916300
new    ...       0.36965643    -430.82863908

__s__    ...       0.21673124

left   ...       0.07646260    -422.34999888
centre ...       0.15292519    -426.03916300
right  ...       0.36965643    -430.82863908
new    ...       0.38517953    -430.85878219

__s__    ...       0.01552310

 ALPHA AFTER:   0.38517952923918297     
 XC AFTER:    6.3728304738698560E-002
 SANITY CHECK:   0.38517952923918292     
 DIRECTION dim            1  value    2.3605009162562685E-002
 DIRECTION dim            2  value    3.2661354797876525E-002
 DIRECTION dim            3  value    3.3120423888505737E-002
 DIRECTION dim            4  value    2.0784621213491197E-002
 DIRECTION dim            5  value   0.12741064348963538     
 DIRECTION dim            6  value    1.1607723187323234E-002
 DIRECTION dim            7  value    2.8719694324047040E-002
 DIRECTION dim            8  value   -3.5471197137310805E-002
 DIRECTION dim            9  value   -3.9750755176548844E-002
 DIRECTION dim           10  value    4.4316634065816880E-002
 DIRECTION dim           11  value    2.6626022804990962E-002
 DIRECTION dim           12  value   -2.4761337449332163E-002
 DIRECTION dim           13  value   -2.8735135379713443E-002
 DIRECTION dim           14  value   -5.9446381665628815E-002
 DIRECTION dim           15  value    2.1057488119033969E-002
 DIRECTION dim           16  value    1.0439053110957278E-002
 DIRECTION dim           17  value   -9.0140864132434065E-002
 DIRECTION dim           18  value   -3.1147237924933770E-002
 DIRECTION dim           19  value   -2.5727495342021088E-002
 DIRECTION dim           20  value    3.3056767524921427E-002
 DIRECTION dim           21  value   -3.6118675308638097E-002
 DIRECTION dim           22  value   -3.7107239837146061E-002
 DIRECTION dim           23  value    8.4460172042834167E-003
 DIRECTION dim           24  value    3.0507708246888775E-002
 DIRECTION dim           25  value    2.1736319792592632E-003
 DIRECTION dim           26  value    4.8997244935452215E-003
 DIRECTION dim           27  value   -9.7239338373219797E-002
 DIRECTION dim           28  value   -3.1743595782243927E-003
 DIRECTION dim           29  value    4.4526973970482608E-002
 DIRECTION dim           30  value   -6.0298950722566580E-002
 DIRECTION dim           31  value   -2.3618154844761052E-002
 DIRECTION dim           32  value    1.1212793448956241E-002
 DIRECTION dim           33  value   -6.0294009583240216E-003
 DIRECTION dim           34  value   -2.3197723055434043E-002
 DIRECTION dim           35  value   -5.9309438651839241E-002
 DIRECTION dim           36  value   -5.1782952159293724E-002
 DIRECTION dim           37  value   -4.7446694923458974E-002
 DIRECTION dim           38  value    2.8951699904621809E-002
 DIRECTION dim           39  value   0.12881710183634712     
 DIRECTION dim           40  value    4.9865897956746175E-002
 DIRECTION dim           41  value   -3.1009682334678150E-002
 DIRECTION dim           42  value    1.5639728376669600E-002
 DIRECTION dim           43  value    4.5319593617132364E-002
 DIRECTION dim           44  value  -0.11364414129784098     
 DIRECTION dim           45  value   -1.4857927856828311E-002
 DIRECTION dim           46  value    3.3594485892686994E-002
 DIRECTION dim           47  value    3.0020401813925429E-002
 DIRECTION dim           48  value   -5.3947507398683620E-002
  Cycle:      5 Energy:      -430.858782  Gnorm:      4.851140  CPU:    0.046
 ALPHA BEFORE:   0.38517952923918297     
 XC BEFORE:    6.3728304738698560E-002
  ** Opt : line minimisation
left   ...       0.00000000    -430.85878219
centre ...       0.09629488    -435.18516970
right  ...       0.19258976    -437.14362094

left   ...       0.00000000    -430.85878219
centre ...       0.09629488    -435.18516970
right  ...       0.19258976    -437.14362094
new    ...       0.22408502    -437.15478790

__s__    ...       0.03149526

 ALPHA AFTER:   0.22408502110484219     
 XC AFTER:    6.1952256688021679E-002
 SANITY CHECK:   0.22408502110484249     
 DIRECTION dim            1  value   -7.9257776442180107E-003
 DIRECTION dim            2  value    9.8303074248542628E-003
 DIRECTION dim            3  value    1.0378776900295296E-002
 DIRECTION dim            4  value    2.6890095754338830E-002
 DIRECTION dim            5  value   0.12274330329436402     
 DIRECTION dim            6  value   -2.4159712590542289E-002
 DIRECTION dim            7  value    3.4673201818236396E-002
 DIRECTION dim            8  value   -2.8971676089500492E-003
 DIRECTION dim            9  value   -1.1574690651272774E-002
 DIRECTION dim           10  value    6.2440587268606761E-002
 DIRECTION dim           11  value    9.9404409088794041E-003
 DIRECTION dim           12  value    4.4900950965181388E-002
 DIRECTION dim           13  value   -1.4151427410466037E-003
 DIRECTION dim           14  value   -5.5186151255697147E-002
 DIRECTION dim           15  value    8.6149566927325824E-002
 DIRECTION dim           16  value    2.2420268203586285E-003
 DIRECTION dim           17  value   -7.2035179340691730E-002
 DIRECTION dim           18  value   -7.7704545228738167E-002
 DIRECTION dim           19  value   -2.3740751453676157E-002
 DIRECTION dim           20  value    8.6839780462636240E-002
 DIRECTION dim           21  value   -2.1666171184341915E-002
 DIRECTION dim           22  value   -5.0539012017645726E-002
 DIRECTION dim           23  value    1.4187717516926927E-002
 DIRECTION dim           24  value    5.0952276141300740E-005
 DIRECTION dim           25  value    4.3527832282161602E-003
 DIRECTION dim           26  value    1.9424557269167420E-002
 DIRECTION dim           27  value  -0.11054688276009283     
 DIRECTION dim           28  value    2.4279448938247157E-003
 DIRECTION dim           29  value    2.4298123120917864E-002
 DIRECTION dim           30  value   -4.8054539880614436E-002
 DIRECTION dim           31  value   -3.4769788209797245E-002
 DIRECTION dim           32  value    2.9820934191065802E-002
 DIRECTION dim           33  value   -1.7059884951014515E-002
 DIRECTION dim           34  value    1.3076053861157299E-002
 DIRECTION dim           35  value   -3.1859617441391215E-002
 DIRECTION dim           36  value    4.3378567742331578E-003
 DIRECTION dim           37  value  -0.10600476790715255     
 DIRECTION dim           38  value   -2.2382226905054526E-002
 DIRECTION dim           39  value    3.0487730415290626E-004
 DIRECTION dim           40  value    6.0909001080873132E-002
 DIRECTION dim           41  value   -8.7552936362557260E-002
 DIRECTION dim           42  value    1.8588668724005782E-002
 DIRECTION dim           43  value    1.5407972087838648E-002
 DIRECTION dim           44  value  -0.14387669065367337     
 DIRECTION dim           45  value   -3.5258477354697795E-002
 DIRECTION dim           46  value    2.8961635449681326E-002
 DIRECTION dim           47  value    3.1708481542795972E-002
 DIRECTION dim           48  value   -7.4739155744277239E-002
  Cycle:      6 Energy:      -437.154788  Gnorm:      6.439556  CPU:    0.049
 Perform trimming
 ALPHA BEFORE:   0.22408502110484219     
 XC BEFORE:    6.1952256688021679E-002
  ** Opt : line minimisation
left   ...       0.00000000    -437.15478790
centre ...       0.05602126    -441.03504025
right  ...       0.11204251    -443.82138687

left   ...       0.00000000    -437.15478790
centre ...       0.05602126    -441.03504025
right  ...       0.11204251    -443.82138687
new    ...       0.22672666    -445.63324260

__s__    ...       0.11468415

left   ...       0.05602126    -441.03504025
centre ...       0.11204251    -443.82138687
right  ...       0.22672666    -445.63324260
new    ...       0.20911681    -445.71396624

__s__    ...      -0.01760985

 ALPHA AFTER:   0.20911681145859148     
 XC AFTER:    5.4655892036480462E-002
 SANITY CHECK:   0.20911681145859151     
 DIRECTION dim            1  value   -3.4891334659557079E-002
 DIRECTION dim            2  value    4.2691348751067414E-003
 DIRECTION dim            3  value    5.4992808966727010E-003
 DIRECTION dim            4  value    2.8738442089083177E-003
 DIRECTION dim            5  value    6.5516402781937280E-002
 DIRECTION dim            6  value    6.0606327733826362E-002
 DIRECTION dim            7  value    5.3286151600568224E-002
 DIRECTION dim            8  value    1.7298365805525177E-002
 DIRECTION dim            9  value   -3.3471032216761658E-003
 DIRECTION dim           10  value    8.6036755730099654E-002
 DIRECTION dim           11  value    2.6925694582913738E-002
 DIRECTION dim           12  value    6.1912899635885928E-002
 DIRECTION dim           13  value    6.7751581355182883E-003
 DIRECTION dim           14  value   -8.4159672583846643E-002
 DIRECTION dim           15  value   0.14800766597251883     
 DIRECTION dim           16  value    2.2862649742698318E-004
 DIRECTION dim           17  value   -8.6057812556968288E-002
 DIRECTION dim           18  value  -0.12871724293456513     
 DIRECTION dim           19  value   -3.6148688780284682E-002
 DIRECTION dim           20  value   0.14222727645599595     
 DIRECTION dim           21  value   -7.7710967756522489E-003
 DIRECTION dim           22  value   -8.3794387588934538E-002
 DIRECTION dim           23  value    2.4566386678423324E-002
 DIRECTION dim           24  value   -7.0410721695553210E-003
 DIRECTION dim           25  value    8.0863170970215097E-003
 DIRECTION dim           26  value    2.7033964605872166E-002
 DIRECTION dim           27  value  -0.16052266014166366     
 DIRECTION dim           28  value    8.2731387583889048E-003
 DIRECTION dim           29  value    1.9553800376872377E-002
 DIRECTION dim           30  value   -5.5094130761900159E-002
 DIRECTION dim           31  value   -5.2428182959384541E-002
 DIRECTION dim           32  value    5.6696209240845521E-002
 DIRECTION dim           33  value   -5.1678548392162975E-003
 DIRECTION dim           34  value    8.6572484723862878E-002
 DIRECTION dim           35  value    7.2267136182032968E-002
 DIRECTION dim           36  value  -0.10046324468417933     
 DIRECTION dim           37  value  -0.16860460902647834     
 DIRECTION dim           38  value   -6.2217849126345939E-002
 DIRECTION dim           39  value   -4.9896604166170401E-002
 DIRECTION dim           40  value    5.7626073229650229E-002
 DIRECTION dim           41  value  -0.12960225315055640     
 DIRECTION dim           42  value   -9.6278640971257989E-002
 DIRECTION dim           43  value    1.2538667981219860E-002
 DIRECTION dim           44  value  -0.20361405156548881     
 DIRECTION dim           45  value   -4.7313858474811135E-002
 DIRECTION dim           46  value    2.0345406395885442E-002
 DIRECTION dim           47  value    4.6507942088446448E-002
 DIRECTION dim           48  value  -0.12103601212968909     
  Cycle:      7 Energy:      -445.713966  Gnorm:      3.374507  CPU:    0.053
 ALPHA BEFORE:   0.20911681145859148     
 XC BEFORE:    5.4655892036480462E-002
  ** Opt : line minimisation
left   ...       0.00000000    -445.71396624
centre ...       0.05227920    -446.89741178
right  ...       0.10455841    -447.72649776

left   ...       0.00000000    -445.71396624
centre ...       0.05227920    -446.89741178
right  ...       0.10455841    -447.72649776
new    ...       0.20073512    -448.42792571

__s__    ...       0.09617671

left   ...       0.05227920    -446.89741178
centre ...       0.10455841    -447.72649776
right  ...       0.20073512    -448.42792571
new    ...       0.21584691    -448.44935107

__s__    ...       0.01511179

 ALPHA AFTER:   0.21584690839858697     
 XC AFTER:    4.8576623182642581E-002
 SANITY CHECK:   0.21584690839858717     
 DIRECTION dim            1  value   -2.8164725169988459E-002
 DIRECTION dim            2  value    5.8356658055436902E-003
 DIRECTION dim            3  value   -3.0682528257194711E-002
 DIRECTION dim            4  value   -1.5172698593474078E-003
 DIRECTION dim            5  value   -1.7617439935704835E-002
 DIRECTION dim            6  value    4.4570718836382042E-003
 DIRECTION dim            7  value    4.4714034055467937E-003
 DIRECTION dim            8  value    1.4258053660607360E-002
 DIRECTION dim            9  value    1.7128874934187601E-002
 DIRECTION dim           10  value   -1.5186715634642817E-002
 DIRECTION dim           11  value    7.1059092488488226E-002
 DIRECTION dim           12  value   -5.2591812101452071E-002
 DIRECTION dim           13  value   -1.0222754900130084E-002
 DIRECTION dim           14  value   -2.6170094075772470E-002
 DIRECTION dim           15  value   -1.4125513933817755E-002
 DIRECTION dim           16  value   -6.6502098527387882E-003
 DIRECTION dim           17  value   -6.9712145899600330E-004
 DIRECTION dim           18  value   -4.4387150712661286E-003
 DIRECTION dim           19  value   -1.3338068896954677E-002
 DIRECTION dim           20  value   -3.5191719489994937E-002
 DIRECTION dim           21  value    2.2612199004645814E-002
 DIRECTION dim           22  value   -1.7708760211249515E-002
 DIRECTION dim           23  value    1.7836794335306605E-002
 DIRECTION dim           24  value    5.8716341593553316E-003
 DIRECTION dim           25  value    1.8807637427037903E-003
 DIRECTION dim           26  value   -1.2734439609904733E-002
 DIRECTION dim           27  value    3.1947018682692511E-003
 DIRECTION dim           28  value    7.6593222162601371E-003
 DIRECTION dim           29  value   -2.0587977378526789E-003
 DIRECTION dim           30  value    5.0882251702934408E-003
 DIRECTION dim           31  value   -6.5851406934184873E-003
 DIRECTION dim           32  value    2.0146655597477126E-002
 DIRECTION dim           33  value    1.7515285407337523E-002
 DIRECTION dim           34  value    4.3213862342514557E-002
 DIRECTION dim           35  value    1.7592858096452443E-002
 DIRECTION dim           36  value   -3.9970946979941427E-002
 DIRECTION dim           37  value    2.9973655953683471E-002
 DIRECTION dim           38  value   -2.9327864533672206E-002
 DIRECTION dim           39  value   -1.0716201437147285E-002
 DIRECTION dim           40  value   -1.8141999675692338E-002
 DIRECTION dim           41  value    2.3212990424518083E-002
 DIRECTION dim           42  value   -5.4738048189233009E-002
 DIRECTION dim           43  value   -1.7142306647088625E-002
 DIRECTION dim           44  value   -1.0515837265319797E-002
 DIRECTION dim           45  value    3.9335368919766927E-003
 DIRECTION dim           46  value   -7.6477077384230355E-003
 DIRECTION dim           47  value   -5.2856755374748078E-003
 DIRECTION dim           48  value   -3.3893812050085632E-002
  Cycle:      8 Energy:      -448.449351  Gnorm:      3.417856  CPU:    0.058
 ALPHA BEFORE:   0.21584690839858697     
 XC BEFORE:    4.8576623182642581E-002
  ** Opt : line minimisation
left   ...       0.00000000    -448.44935107
centre ...       0.05396173    -449.71685894
right  ...       0.10792345    -450.55566728

left   ...       0.00000000    -448.44935107
centre ...       0.05396173    -449.71685894
right  ...       0.10792345    -450.55566728
new    ...       0.18652598    -451.07945587

__s__    ...       0.07860252

left   ...       0.05396173    -449.71685894
centre ...       0.10792345    -450.55566728
right  ...       0.18652598    -451.07945587
new    ...       0.19696024    -451.09000986

__s__    ...       0.01043426

 ALPHA AFTER:   0.19696024096120227     
 XC AFTER:    3.8205730997332023E-002
 SANITY CHECK:   0.19696024096120227     
 DIRECTION dim            1  value   -5.2654749682975066E-002
 DIRECTION dim            2  value    1.2072144274112743E-002
 DIRECTION dim            3  value   -5.7637865341073513E-002
 DIRECTION dim            4  value    3.4366612112019489E-003
 DIRECTION dim            5  value   -1.7796987950997160E-002
 DIRECTION dim            6  value   -2.6844104607624358E-002
 DIRECTION dim            7  value    6.4315706054934516E-003
 DIRECTION dim            8  value    2.1068487125059644E-002
 DIRECTION dim            9  value    3.4039161681041846E-002
 DIRECTION dim           10  value   -1.2471379783679558E-002
 DIRECTION dim           11  value    7.4114154094730378E-002
 DIRECTION dim           12  value   -4.5225010388469669E-002
 DIRECTION dim           13  value   -1.9004979618087066E-002
 DIRECTION dim           14  value   -4.9701841178267245E-002
 DIRECTION dim           15  value   -2.3728518310215482E-002
 DIRECTION dim           16  value   -1.7969371533747298E-002
 DIRECTION dim           17  value   -1.7632603991952246E-003
 DIRECTION dim           18  value   -2.1363034994112309E-002
 DIRECTION dim           19  value   -8.0909814672531985E-003
 DIRECTION dim           20  value   -6.5919830457592116E-002
 DIRECTION dim           21  value   -4.4188567573649071E-002
 DIRECTION dim           22  value   -3.0904894897849103E-002
 DIRECTION dim           23  value    3.4351399834785593E-002
 DIRECTION dim           24  value   -8.8502363344819500E-003
 DIRECTION dim           25  value    3.5794779295970887E-003
 DIRECTION dim           26  value   -2.4684731839106869E-002
 DIRECTION dim           27  value    1.0810683930787013E-002
 DIRECTION dim           28  value    1.5732757972102031E-002
 DIRECTION dim           29  value   -2.9707132616998838E-003
 DIRECTION dim           30  value    2.5708446707182636E-003
 DIRECTION dim           31  value   -1.2632726689435044E-002
 DIRECTION dim           32  value    3.9293802265830929E-002
 DIRECTION dim           33  value    1.3601607973261480E-002
 DIRECTION dim           34  value    7.2226215547578160E-002
 DIRECTION dim           35  value    1.4370010565280832E-002
 DIRECTION dim           36  value   -2.8228878204449123E-002
 DIRECTION dim           37  value    4.2876148028660355E-002
 DIRECTION dim           38  value   -2.9929537361232557E-003
 DIRECTION dim           39  value   -3.6139037166368397E-002
 DIRECTION dim           40  value   -2.9765070890015947E-002
 DIRECTION dim           41  value    5.0359918620259764E-002
 DIRECTION dim           42  value    4.9646489435516153E-002
 DIRECTION dim           43  value   -4.0979712754366703E-002
 DIRECTION dim           44  value   -3.1171215483545674E-002
 DIRECTION dim           45  value    5.9169122841561030E-004
 DIRECTION dim           46  value    4.2802919990397609E-004
 DIRECTION dim           47  value   -1.8575182759884592E-002
 DIRECTION dim           48  value   -6.0124936088826353E-002
  Cycle:      9 Energy:      -451.090010  Gnorm:      2.446693  CPU:    0.063
 ALPHA BEFORE:   0.19696024096120227     
 XC BEFORE:    3.8205730997332023E-002
  ** Opt : line minimisation
left   ...       0.00000000    -451.09000986
centre ...       0.04924006    -451.66378286
right  ...       0.09848012    -452.02417273

left   ...       0.00000000    -451.09000986
centre ...       0.04924006    -451.66378286
right  ...       0.09848012    -452.02417273
new    ...       0.15702326    -452.20910039

__s__    ...       0.05854314

 ALPHA AFTER:   0.15702326322252885     
 XC AFTER:    3.5653779460705748E-002
 SANITY CHECK:   0.15702326322252835     
 DIRECTION dim            1  value   -1.6252060263260041E-002
 DIRECTION dim            2  value    7.8582481515597196E-003
 DIRECTION dim            3  value   -1.2127265147961142E-002
 DIRECTION dim            4  value    1.8185498038608685E-003
 DIRECTION dim            5  value    2.2911327552459994E-003
 DIRECTION dim            6  value   -3.2935922715597019E-002
 DIRECTION dim            7  value   -1.5484176194924201E-003
 DIRECTION dim            8  value   -1.4712861422127254E-002
 DIRECTION dim            9  value   -5.5441010655810176E-002
 DIRECTION dim           10  value    1.2804433699094581E-002
 DIRECTION dim           11  value   -1.3065870329487162E-002
 DIRECTION dim           12  value    2.2426028837328912E-002
 DIRECTION dim           13  value   -3.3890849994990258E-003
 DIRECTION dim           14  value   -1.0005843653208101E-002
 DIRECTION dim           15  value   -5.4345425833522290E-003
 DIRECTION dim           16  value   -1.2595487957695262E-002
 DIRECTION dim           17  value    2.8217837785465844E-003
 DIRECTION dim           18  value   -2.7101225166208851E-003
 DIRECTION dim           19  value   -8.8985679888184798E-003
 DIRECTION dim           20  value    3.0380868166662170E-003
 DIRECTION dim           21  value    1.8716235845017505E-002
 DIRECTION dim           22  value   -1.0844813139237096E-002
 DIRECTION dim           23  value    1.0581681344658088E-002
 DIRECTION dim           24  value   -3.1829155533400870E-003
 DIRECTION dim           25  value    1.7316190444113381E-003
 DIRECTION dim           26  value   -3.9785300416641661E-003
 DIRECTION dim           27  value    4.7567327934259843E-003
 DIRECTION dim           28  value    8.8026952469789331E-003
 DIRECTION dim           29  value    1.9445629006748419E-004
 DIRECTION dim           30  value    3.8326427509835694E-003
 DIRECTION dim           31  value   -7.4244798513852109E-003
 DIRECTION dim           32  value    1.9141849486945507E-002
 DIRECTION dim           33  value   -1.3356781346363516E-002
 DIRECTION dim           34  value    2.0281003180524070E-002
 DIRECTION dim           35  value   -6.1478883213350512E-003
 DIRECTION dim           36  value    2.6120821544531009E-003
 DIRECTION dim           37  value   -1.4081800611604981E-003
 DIRECTION dim           38  value    4.0656115320475888E-002
 DIRECTION dim           39  value    3.8954898734131611E-002
 DIRECTION dim           40  value   -7.4345564972184747E-004
 DIRECTION dim           41  value   -8.2504165533140387E-003
 DIRECTION dim           42  value   -3.6284227340046632E-002
 DIRECTION dim           43  value   -1.9146508843535741E-002
 DIRECTION dim           44  value   -2.1871583099328355E-002
 DIRECTION dim           45  value   -1.2272722427440128E-003
 DIRECTION dim           46  value    1.1046701142812667E-002
 DIRECTION dim           47  value    7.4875272776516583E-004
 DIRECTION dim           48  value   -1.9655236984887046E-002
  Cycle:     10 Energy:      -452.209100  Gnorm:      1.797666  CPU:    0.067
 ALPHA BEFORE:   0.15702326322252885     
 XC BEFORE:    3.5653779460705748E-002
  ** Opt : line minimisation
left   ...       0.00000000    -452.20910039
centre ...       0.03925582    -452.50797822
right  ...       0.07851163    -452.76492388

left   ...       0.00000000    -452.20910039
centre ...       0.03925582    -452.50797822
right  ...       0.07851163    -452.76492388
new    ...       0.29942969    -453.37222275

__s__    ...       0.22091806

left   ...       0.03925582    -452.50797822
centre ...       0.07851163    -452.76492388
right  ...       0.29942969    -453.37222275
new    ...       0.28316581    -453.37912928

__s__    ...      -0.01626388

 ALPHA AFTER:   0.28316581472184293     
 XC AFTER:    2.9934882590501921E-002
 SANITY CHECK:   0.28316581472184277     
 DIRECTION dim            1  value   -2.0196282788660661E-002
 DIRECTION dim            2  value    9.7595320846627434E-003
 DIRECTION dim            3  value   -7.1815325736818347E-003
 DIRECTION dim            4  value   -9.4619523795417236E-004
 DIRECTION dim            5  value   -1.8855633741116703E-004
 DIRECTION dim            6  value   -3.0631778555609016E-002
 DIRECTION dim            7  value    1.6493551821680074E-003
 DIRECTION dim            8  value    3.0397331973409424E-003
 DIRECTION dim            9  value   -1.4087965758145910E-002
 DIRECTION dim           10  value    1.5033170950982300E-002
 DIRECTION dim           11  value   -1.3373105929051188E-002
 DIRECTION dim           12  value    3.1105358298349317E-002
 DIRECTION dim           13  value    1.8923540145271795E-003
 DIRECTION dim           14  value   -1.3715102271333719E-002
 DIRECTION dim           15  value    3.9251848570284031E-003
 DIRECTION dim           16  value   -1.8548665684876273E-002
 DIRECTION dim           17  value    3.1460522858402290E-003
 DIRECTION dim           18  value   -1.4646844750696043E-002
 DIRECTION dim           19  value   -1.0188558620675249E-002
 DIRECTION dim           20  value    1.2120293573539913E-003
 DIRECTION dim           21  value    4.2008599659030992E-003
 DIRECTION dim           22  value   -1.5580836153720853E-002
 DIRECTION dim           23  value    1.2746730603539886E-002
 DIRECTION dim           24  value   -1.7711524542775678E-002
 DIRECTION dim           25  value    2.0925990333008492E-003
 DIRECTION dim           26  value   -4.5515098386590923E-003
 DIRECTION dim           27  value    7.7342363897738827E-003
 DIRECTION dim           28  value    1.3410278316946083E-002
 DIRECTION dim           29  value    1.0890660289728463E-003
 DIRECTION dim           30  value    2.7615987213153483E-003
 DIRECTION dim           31  value   -8.5931097638861798E-003
 DIRECTION dim           32  value    2.6132537066037402E-002
 DIRECTION dim           33  value   -2.0726255304270122E-002
 DIRECTION dim           34  value    2.8534920155585019E-002
 DIRECTION dim           35  value   -2.4161909944766702E-003
 DIRECTION dim           36  value   -1.1734549893563172E-002
 DIRECTION dim           37  value   -8.6124885289715746E-003
 DIRECTION dim           38  value    2.8221096078190649E-002
 DIRECTION dim           39  value   -2.4910805438376690E-002
 DIRECTION dim           40  value    2.4310622201030964E-004
 DIRECTION dim           41  value   -9.9500771034311715E-003
 DIRECTION dim           42  value    1.2883286589382065E-002
 DIRECTION dim           43  value   -2.4898516470836716E-002
 DIRECTION dim           44  value   -3.0454377557405460E-002
 DIRECTION dim           45  value   -7.2988218999255044E-003
 DIRECTION dim           46  value    1.1224437730490571E-002
 DIRECTION dim           47  value   -3.7746891379722568E-003
 DIRECTION dim           48  value   -2.8277355539443202E-002
  Cycle:     11 Energy:      -453.379129  Gnorm:      2.000249  CPU:    0.072
 Perform trimming
 ALPHA BEFORE:   0.28316581472184293     
 XC BEFORE:    2.9934882590501921E-002
  ** Opt : line minimisation
left   ...       0.00000000    -453.37912928
centre ...       0.07079145    -453.93764678
right  ...       0.14158291    -454.38609885

left   ...       0.00000000    -453.37912928
centre ...       0.07079145    -453.93764678
right  ...       0.14158291    -454.38609885
new    ...       0.39462083    -454.95940672

__s__    ...       0.25303792

left   ...       0.07079145    -453.93764678
centre ...       0.14158291    -454.38609885
right  ...       0.39462083    -454.95940672
new    ...       0.35825619    -454.98653664

__s__    ...      -0.03636464

 ALPHA AFTER:   0.35825618834699235     
 XC AFTER:    1.9063164837328728E-002
 SANITY CHECK:   0.35825618834699235     
 DIRECTION dim            1  value   -3.0346210635846128E-002
 DIRECTION dim            2  value    1.7692130180326414E-002
 DIRECTION dim            3  value    3.8030032170874861E-003
 DIRECTION dim            4  value   -8.0372993476521479E-003
 DIRECTION dim            5  value   -7.1323742907472799E-003
 DIRECTION dim            6  value   -3.1538409890323110E-002
 DIRECTION dim            7  value    3.4105839874658452E-003
 DIRECTION dim            8  value    1.4148092315226755E-002
 DIRECTION dim            9  value   -1.7792517036632694E-002
 DIRECTION dim           10  value    1.5089029792183972E-002
 DIRECTION dim           11  value    9.6857710151337963E-003
 DIRECTION dim           12  value    1.3740176491925953E-002
 DIRECTION dim           13  value    4.4267886589998036E-003
 DIRECTION dim           14  value   -2.4267536507323620E-002
 DIRECTION dim           15  value   -4.5740831890214908E-003
 DIRECTION dim           16  value   -3.3893019853564632E-002
 DIRECTION dim           17  value    2.0990097227818749E-003
 DIRECTION dim           18  value   -1.5541712851594910E-002
 DIRECTION dim           19  value   -1.5132655007803140E-002
 DIRECTION dim           20  value    1.8648331477805580E-003
 DIRECTION dim           21  value   -1.5996160178380479E-002
 DIRECTION dim           22  value   -2.7955024904061980E-002
 DIRECTION dim           23  value    2.1162576044458658E-002
 DIRECTION dim           24  value   -1.9715989723284064E-002
 DIRECTION dim           25  value    2.8869015248221374E-003
 DIRECTION dim           26  value   -6.5731801090869631E-003
 DIRECTION dim           27  value    1.6192507640000922E-002
 DIRECTION dim           28  value    2.6038539157756460E-002
 DIRECTION dim           29  value    2.9828264339376419E-003
 DIRECTION dim           30  value    3.7207018172029085E-003
 DIRECTION dim           31  value   -1.2384518926077635E-002
 DIRECTION dim           32  value    4.8461056554458551E-002
 DIRECTION dim           33  value   -2.9729911950497314E-002
 DIRECTION dim           34  value    4.9762615041589485E-002
 DIRECTION dim           35  value    4.4196180957745898E-003
 DIRECTION dim           36  value   -6.2545474192860523E-002
 DIRECTION dim           37  value   -1.1158013467126868E-002
 DIRECTION dim           38  value    6.2794887700311419E-003
 DIRECTION dim           39  value   -1.2438160910783673E-003
 DIRECTION dim           40  value   -4.4344152928394373E-003
 DIRECTION dim           41  value   -1.2752791735894862E-002
 DIRECTION dim           42  value   -5.8730770111821810E-003
 DIRECTION dim           43  value   -3.8462890414706519E-002
 DIRECTION dim           44  value   -4.5307739736303150E-002
 DIRECTION dim           45  value   -1.0543445840579592E-002
 DIRECTION dim           46  value    1.6638622372372312E-002
 DIRECTION dim           47  value   -4.5562678144379374E-003
 DIRECTION dim           48  value   -5.4867147074389437E-002
  Cycle:     12 Energy:      -454.986537  Gnorm:      2.217319  CPU:    0.077
 ALPHA BEFORE:   0.35825618834699235     
 XC BEFORE:    1.9063164837328728E-002
  ** Opt : line minimisation
left   ...       0.00000000    -454.98653664
centre ...       0.08956405    -455.79288337
right  ...       0.17912809    -456.23315808

left   ...       0.00000000    -454.98653664
centre ...       0.08956405    -455.79288337
right  ...       0.17912809    -456.23315808
new    ...       0.24206472    -456.34190354

__s__    ...       0.06293663

 ALPHA AFTER:   0.24206472071906060     
 XC AFTER:    1.0977494787762660E-002
 SANITY CHECK:   0.24206472071906066     
 DIRECTION dim            1  value   -3.3402926397317782E-002
 DIRECTION dim            2  value    2.0066351830056100E-002
 DIRECTION dim            3  value   -1.3736659875052064E-002
 DIRECTION dim            4  value   -1.2146766399573669E-002
 DIRECTION dim            5  value   -4.3610142869111614E-003
 DIRECTION dim            6  value   -5.2665517380338964E-002
 DIRECTION dim            7  value    3.9741583104249802E-003
 DIRECTION dim            8  value    2.3364676177509980E-002
 DIRECTION dim            9  value   -9.7752284141793891E-003
 DIRECTION dim           10  value    3.8290932165598868E-003
 DIRECTION dim           11  value    5.9023812971425720E-002
 DIRECTION dim           12  value   -2.2684800544689562E-002
 DIRECTION dim           13  value    9.0291266666627200E-003
 DIRECTION dim           14  value   -2.7290810354166049E-002
 DIRECTION dim           15  value   -3.8091706621252953E-004
 DIRECTION dim           16  value   -3.8252879778069661E-002
 DIRECTION dim           17  value   -7.4257610128665337E-003
 DIRECTION dim           18  value   -1.9135164860283067E-002
 DIRECTION dim           19  value   -1.7900570042474067E-002
 DIRECTION dim           20  value   -7.1067501253387778E-003
 DIRECTION dim           21  value   -7.1165917416579627E-004
 DIRECTION dim           22  value   -2.7171370209862523E-002
 DIRECTION dim           23  value    1.8988350358464412E-002
 DIRECTION dim           24  value    6.5854395950005265E-003
 DIRECTION dim           25  value   -2.8244434267677646E-004
 DIRECTION dim           26  value   -4.8002023913395076E-003
 DIRECTION dim           27  value   -6.7334504673199000E-003
 DIRECTION dim           28  value    3.4367441572286696E-002
 DIRECTION dim           29  value    7.8349294187869956E-003
 DIRECTION dim           30  value    1.2281084338128788E-002
 DIRECTION dim           31  value   -1.0703001459501413E-002
 DIRECTION dim           32  value    5.7692094016842062E-002
 DIRECTION dim           33  value   -2.5594730097067080E-002
 DIRECTION dim           34  value    4.8429794748501717E-002
 DIRECTION dim           35  value    1.8643195471754505E-003
 DIRECTION dim           36  value   -2.5766688217697606E-002
 DIRECTION dim           37  value   -5.4747302691927338E-003
 DIRECTION dim           38  value   -3.8715097679083828E-002
 DIRECTION dim           39  value   -6.4179335074115943E-003
 DIRECTION dim           40  value   -1.0136556708516384E-002
 DIRECTION dim           41  value   -5.9602164496386396E-004
 DIRECTION dim           42  value   -3.3828913696524618E-002
 DIRECTION dim           43  value   -3.5804026706888134E-002
 DIRECTION dim           44  value   -3.6446696303404927E-002
 DIRECTION dim           45  value   -9.5160343046354033E-003
 DIRECTION dim           46  value    1.4380106047915056E-002
 DIRECTION dim           47  value   -5.9358925127576409E-003
 DIRECTION dim           48  value   -6.8886357263163958E-002
  Cycle:     13 Energy:      -456.341904  Gnorm:      1.713868  CPU:    0.082
 ALPHA BEFORE:   0.24206472071906060     
 XC BEFORE:    1.0977494787762660E-002
  ** Opt : line minimisation
left   ...       0.00000000    -456.34190354
centre ...       0.06051618    -456.68005099
right  ...       0.12103236    -456.85233913

left   ...       0.00000000    -456.34190354
centre ...       0.06051618    -456.68005099
right  ...       0.12103236    -456.85233913
new    ...       0.15363610    -456.87613287

__s__    ...       0.03260374

 ALPHA AFTER:   0.15363610318971957     
 XC AFTER:    8.7911137293989715E-003
 SANITY CHECK:   0.15363610318971954     
 DIRECTION dim            1  value   -1.4230906752847064E-002
 DIRECTION dim            2  value    1.3553905304921836E-002
 DIRECTION dim            3  value   -5.0548044923816818E-003
 DIRECTION dim            4  value   -1.4266101060371432E-002
 DIRECTION dim            5  value    1.3651374918614541E-004
 DIRECTION dim            6  value   -2.4975341520294965E-002
 DIRECTION dim            7  value    1.8228486259188692E-003
 DIRECTION dim            8  value    1.4575123906972100E-002
 DIRECTION dim            9  value   -8.0418240801939699E-004
 DIRECTION dim           10  value    5.9887530160228769E-003
 DIRECTION dim           11  value    3.2839858663489728E-002
 DIRECTION dim           12  value   -2.2918469574599629E-002
 DIRECTION dim           13  value    7.0423613510409511E-003
 DIRECTION dim           14  value   -1.8301130987509889E-002
 DIRECTION dim           15  value    4.4774705092760657E-003
 DIRECTION dim           16  value   -1.9091585537952937E-002
 DIRECTION dim           17  value   -8.4619097665742070E-003
 DIRECTION dim           18  value   -3.2977647130824031E-002
 DIRECTION dim           19  value   -8.3245617352874675E-003
 DIRECTION dim           20  value   -1.6420436646597720E-002
 DIRECTION dim           21  value   -8.2317575355539303E-003
 DIRECTION dim           22  value   -1.2346318911112528E-002
 DIRECTION dim           23  value    5.7754043225705289E-003
 DIRECTION dim           24  value    1.0223060872421700E-002
 DIRECTION dim           25  value   -3.6765446307329046E-003
 DIRECTION dim           26  value   -2.6983299265087033E-003
 DIRECTION dim           27  value   -2.4367727158086806E-002
 DIRECTION dim           28  value    2.5787442702570371E-002
 DIRECTION dim           29  value    1.0811683545761303E-002
 DIRECTION dim           30  value    2.3311308059416409E-003
 DIRECTION dim           31  value   -2.9231334110295022E-003
 DIRECTION dim           32  value    3.5972578728052179E-002
 DIRECTION dim           33  value   -1.4027299245875025E-002
 DIRECTION dim           34  value    1.3543639514483518E-002
 DIRECTION dim           35  value   -5.6416679150364264E-003
 DIRECTION dim           36  value    1.5210725399684355E-002
 DIRECTION dim           37  value   -5.3246333821399729E-003
 DIRECTION dim           38  value   -9.7391762982822917E-003
 DIRECTION dim           39  value   -3.0731468144105802E-002
 DIRECTION dim           40  value   -8.3727718086112329E-003
 DIRECTION dim           41  value    1.6883108802837922E-002
 DIRECTION dim           42  value    3.4298094821332559E-002
 DIRECTION dim           43  value   -1.5575627273976751E-002
 DIRECTION dim           44  value   -1.1070105849441767E-002
 DIRECTION dim           45  value    2.9625984629623970E-003
 DIRECTION dim           46  value    7.6028202265281952E-003
 DIRECTION dim           47  value   -1.1317072379595141E-002
 DIRECTION dim           48  value   -4.0616102056519165E-002
  Cycle:     14 Energy:      -456.876133  Gnorm:      1.286762  CPU:    0.086
 ALPHA BEFORE:   0.15363610318971957     
 XC BEFORE:    8.7911137293989715E-003
  ** Opt : line minimisation
left   ...       0.00000000    -456.87613287
centre ...       0.03840903    -457.01210428
right  ...       0.07681805    -457.12689540

left   ...       0.00000000    -456.87613287
centre ...       0.03840903    -457.01210428
right  ...       0.07681805    -457.12689540
new    ...       0.26577943    -457.39318729

__s__    ...       0.18896138

left   ...       0.03840903    -457.01210428
centre ...       0.07681805    -457.12689540
right  ...       0.26577943    -457.39318729
new    ...       0.27273518    -457.39385972

__s__    ...       0.00695574

 ALPHA AFTER:   0.27273517647006307     
 XC AFTER:    7.6620614167446557E-003
 SANITY CHECK:   0.27273517647006290     
 DIRECTION dim            1  value   -4.1397385084950625E-003
 DIRECTION dim            2  value    1.4827483678538891E-002
 DIRECTION dim            3  value    1.0351745036917303E-002
 DIRECTION dim            4  value   -2.0699429229010757E-002
 DIRECTION dim            5  value   -1.5225799734345097E-003
 DIRECTION dim            6  value   -4.9032353888870533E-005
 DIRECTION dim            7  value    2.0622611563699152E-004
 DIRECTION dim            8  value    6.6202787108673210E-003
 DIRECTION dim            9  value   -2.2042345364037468E-002
 DIRECTION dim           10  value    1.0517830140756430E-002
 DIRECTION dim           11  value    1.8816956185015370E-002
 DIRECTION dim           12  value   -3.1329779973327899E-002
 DIRECTION dim           13  value    2.5962084080559471E-003
 DIRECTION dim           14  value   -1.4105056064833303E-002
 DIRECTION dim           15  value   -6.2756832302385442E-003
 DIRECTION dim           16  value   -1.3490596521111781E-002
 DIRECTION dim           17  value   -1.1089911666115532E-002
 DIRECTION dim           18  value   -1.9092860204938129E-002
 DIRECTION dim           19  value   -7.3675980775074409E-003
 DIRECTION dim           20  value   -1.2801119415404833E-002
 DIRECTION dim           21  value   -3.7183355478900846E-003
 DIRECTION dim           22  value   -8.6412160025154082E-003
 DIRECTION dim           23  value    1.7343777982944313E-003
 DIRECTION dim           24  value    1.5631866100891983E-002
 DIRECTION dim           25  value   -5.1853245258328450E-003
 DIRECTION dim           26  value   -1.9099019975920895E-003
 DIRECTION dim           27  value   -2.7574876084473929E-002
 DIRECTION dim           28  value    2.5836690493058243E-002
 DIRECTION dim           29  value    1.4347868846040397E-002
 DIRECTION dim           30  value   -1.4847685796057382E-003
 DIRECTION dim           31  value    4.6921318621524831E-004
 DIRECTION dim           32  value    3.0990688761685793E-002
 DIRECTION dim           33  value   -7.1559298310859866E-003
 DIRECTION dim           34  value   -7.9253722223047822E-004
 DIRECTION dim           35  value   -5.1151562973712891E-003
 DIRECTION dim           36  value   -1.0270817386190520E-002
 DIRECTION dim           37  value   -6.1752968638472960E-003
 DIRECTION dim           38  value    1.0077712480759487E-002
 DIRECTION dim           39  value    5.3560750221392298E-003
 DIRECTION dim           40  value   -7.5648157786601822E-003
 DIRECTION dim           41  value    1.7878244522403022E-002
 DIRECTION dim           42  value    9.1074252928154912E-003
 DIRECTION dim           43  value   -9.0796906377692502E-003
 DIRECTION dim           44  value   -9.3867665981000898E-004
 DIRECTION dim           45  value    1.0858082176119671E-002
 DIRECTION dim           46  value    6.1584902007374848E-003
 DIRECTION dim           47  value   -1.1469490997746645E-002
 DIRECTION dim           48  value   -3.1774678413006109E-002
  Cycle:     15 Energy:      -457.393860  Gnorm:      1.103273  CPU:    0.090
 ALPHA BEFORE:   0.27273517647006307     
 XC BEFORE:    7.6620614167446557E-003
  ** Opt : line minimisation
left   ...       0.00000000    -457.39385972
centre ...       0.06818379    -457.56540940
right  ...       0.13636759    -457.69305827

left   ...       0.00000000    -457.39385972
centre ...       0.06818379    -457.56540940
right  ...       0.13636759    -457.69305827
new    ...       0.30053136    -457.82749817

__s__    ...       0.16416377

left   ...       0.06818379    -457.56540940
centre ...       0.13636759    -457.69305827
right  ...       0.30053136    -457.82749817
new    ...       0.30878356    -457.82791788

__s__    ...       0.00825221

 ALPHA AFTER:   0.30878356372364274     
 XC AFTER:    6.4706186982007073E-003
 SANITY CHECK:   0.30878356372364296     
 DIRECTION dim            1  value   -3.8585043328610365E-003
 DIRECTION dim            2  value    1.6201712988232208E-002
 DIRECTION dim            3  value   -3.1707415106944593E-003
 DIRECTION dim            4  value   -2.4372690133252765E-002
 DIRECTION dim            5  value   -4.8137534567009111E-004
 DIRECTION dim            6  value    3.3304076568160179E-003
 DIRECTION dim            7  value    3.0229968601555877E-004
 DIRECTION dim            8  value    1.0651903399991060E-002
 DIRECTION dim            9  value   -3.5217983672667947E-003
 DIRECTION dim           10  value    1.6562057874702486E-002
 DIRECTION dim           11  value    5.2193426482566568E-003
 DIRECTION dim           12  value   -2.0368006091089977E-002
 DIRECTION dim           13  value    1.4461332760938323E-003
 DIRECTION dim           14  value   -7.8497661038421512E-003
 DIRECTION dim           15  value   -7.1541095651539753E-003
 DIRECTION dim           16  value   -1.0816810865360450E-002
 DIRECTION dim           17  value   -1.2053857083808918E-002
 DIRECTION dim           18  value   -1.8482487581474149E-003
 DIRECTION dim           19  value   -9.2447283452036060E-003
 DIRECTION dim           20  value   -2.1725619128480263E-003
 DIRECTION dim           21  value    8.4797717382466137E-003
 DIRECTION dim           22  value   -7.9289524349194507E-003
 DIRECTION dim           23  value    3.8609044866061279E-003
 DIRECTION dim           24  value    7.9236679438120881E-003
 DIRECTION dim           25  value   -5.3195364917189092E-003
 DIRECTION dim           26  value   -5.4522414451354422E-004
 DIRECTION dim           27  value   -2.5623822655819733E-002
 DIRECTION dim           28  value    2.8573928406207733E-002
 DIRECTION dim           29  value    1.9039965695762003E-002
 DIRECTION dim           30  value   -5.2096349205065862E-005
 DIRECTION dim           31  value    2.4746977172533818E-003
 DIRECTION dim           32  value    2.9961481454770365E-002
 DIRECTION dim           33  value   -6.3295449317852456E-003
 DIRECTION dim           34  value   -9.3139408192828670E-003
 DIRECTION dim           35  value   -5.5092395819355527E-003
 DIRECTION dim           36  value   -3.0377117357360791E-003
 DIRECTION dim           37  value   -1.1173585228744533E-002
 DIRECTION dim           38  value    1.4588093632327843E-002
 DIRECTION dim           39  value   -1.9206227861728258E-002
 DIRECTION dim           40  value   -7.3543296425410123E-003
 DIRECTION dim           41  value    5.5349539043635749E-003
 DIRECTION dim           42  value   -1.9485511552957215E-002
 DIRECTION dim           43  value   -1.0184325337192745E-002
 DIRECTION dim           44  value    1.2839315936854069E-003
 DIRECTION dim           45  value    7.0424144837115963E-003
 DIRECTION dim           46  value    3.5345022109135589E-003
 DIRECTION dim           47  value   -1.3642878391718547E-002
 DIRECTION dim           48  value   -2.9822076000778810E-002
  Cycle:     16 Energy:      -457.827918  Gnorm:      1.193532  CPU:    0.096
 ALPHA BEFORE:   0.30878356372364274     
 XC BEFORE:    6.4706186982007073E-003
  ** Opt : line minimisation
left   ...       0.00000000    -457.82791788
centre ...       0.07719589    -458.06417210
right  ...       0.15439178    -458.26331571

left   ...       0.00000000    -457.82791788
centre ...       0.07719589    -458.06417210
right  ...       0.15439178    -458.26331571
new    ...       0.53004394    -458.67472868

__s__    ...       0.37565215

left   ...       0.07719589    -458.06417210
centre ...       0.15439178    -458.26331571
right  ...       0.53004394    -458.67472868
new    ...       0.50926082    -458.67656367

__s__    ...      -0.02078311

 ALPHA AFTER:   0.50926082208234091     
 XC AFTER:    3.0594309605439115E-003
 SANITY CHECK:   0.50926082208234091     
 DIRECTION dim            1  value   -6.6983117289655765E-003
 DIRECTION dim            2  value    2.3094395308119329E-002
 DIRECTION dim            3  value   -9.5161695553991170E-003
 DIRECTION dim            4  value   -3.5805940135926390E-002
 DIRECTION dim            5  value    1.3235442942879259E-003
 DIRECTION dim            6  value    9.5627288980006265E-003
 DIRECTION dim            7  value   -6.1339232703187720E-004
 DIRECTION dim            8  value    1.3444796512665185E-002
 DIRECTION dim            9  value    4.0578157499147035E-003
 DIRECTION dim           10  value    2.6826034265786079E-002
 DIRECTION dim           11  value    9.9156959184356491E-004
 DIRECTION dim           12  value   -1.6446259060610563E-002
 DIRECTION dim           13  value    8.4760226024216618E-005
 DIRECTION dim           14  value   -5.0678559821306143E-003
 DIRECTION dim           15  value   -1.6135853612284534E-002
 DIRECTION dim           16  value   -1.3800145615848278E-002
 DIRECTION dim           17  value   -1.5941376662327776E-002
 DIRECTION dim           18  value    5.7423899731301768E-004
 DIRECTION dim           19  value   -1.0493547239514513E-002
 DIRECTION dim           20  value    9.7915034874082978E-003
 DIRECTION dim           21  value   -1.7442312996670602E-002
 DIRECTION dim           22  value   -1.1251195941095788E-002
 DIRECTION dim           23  value    8.1358896387481276E-003
 DIRECTION dim           24  value   -8.1472835351588703E-003
 DIRECTION dim           25  value   -6.6938642701249648E-003
 DIRECTION dim           26  value    1.3548400275984369E-003
 DIRECTION dim           27  value   -2.3203397968729798E-002
 DIRECTION dim           28  value    4.2219423343071071E-002
 DIRECTION dim           29  value    3.0150776795590709E-002
 DIRECTION dim           30  value   -9.7575599616685927E-003
 DIRECTION dim           31  value    4.6096041130009816E-003
 DIRECTION dim           32  value    4.2134204313054757E-002
 DIRECTION dim           33  value   -1.5933858376384322E-002
 DIRECTION dim           34  value   -2.1285687300521928E-002
 DIRECTION dim           35  value   -7.5415865791766592E-003
 DIRECTION dim           36  value    2.7358526921384962E-003
 DIRECTION dim           37  value   -1.6810203855936755E-002
 DIRECTION dim           38  value    1.5955711318110688E-002
 DIRECTION dim           39  value   -1.1649095957306619E-002
 DIRECTION dim           40  value   -6.6990272615780090E-003
 DIRECTION dim           41  value   -6.8416858081506221E-003
 DIRECTION dim           42  value    7.1077521864000223E-004
 DIRECTION dim           43  value   -1.9284911536366502E-002
 DIRECTION dim           44  value    3.2961936556492686E-003
 DIRECTION dim           45  value    4.1942399134457711E-003
 DIRECTION dim           46  value    6.5543726011179377E-003
 DIRECTION dim           47  value   -2.3347122764258581E-002
 DIRECTION dim           48  value   -4.2899479230108922E-002
  Cycle:     17 Energy:      -458.676564  Gnorm:      1.450554  CPU:    0.101
 Perform trimming
 ALPHA BEFORE:   0.50926082208234091     
 XC BEFORE:    3.0594309605439115E-003
  ** Opt : line minimisation
left   ...       0.00000000    -458.67656367
centre ...       0.12731521    -459.04143367
right  ...       0.25463041    -458.94759174

left   ...       0.00000000    -458.67656367
centre ...       0.12731521    -459.04143367
right  ...       0.25463041    -458.94759174
new    ...       0.16492704    -459.05940984

__s__    ...      -0.08970337

left   ...       0.12731521    -459.04143367
centre ...       0.16492704    -459.05940984
right  ...       0.25463041    -458.94759174
new    ...       0.16376390    -459.05944207

__s__    ...      -0.00116314

 ALPHA AFTER:   0.16376390261260673     
 XC AFTER:    1.3396806999743203E-003
 SANITY CHECK:   0.16376390261260673     
 DIRECTION dim            1  value   -1.0501400083495585E-002
 DIRECTION dim            2  value    3.5269697209499892E-002
 DIRECTION dim            3  value   -8.9685142426775381E-003
 DIRECTION dim            4  value   -5.3200341027840881E-002
 DIRECTION dim            5  value    2.2458750661356335E-003
 DIRECTION dim            6  value    4.4666415169307035E-003
 DIRECTION dim            7  value   -3.9036707326022147E-003
 DIRECTION dim            8  value    2.6972778267730434E-003
 DIRECTION dim            9  value   -2.9454748816102713E-002
 DIRECTION dim           10  value    3.8538927674919302E-002
 DIRECTION dim           11  value    1.6450876656248056E-002
 DIRECTION dim           12  value   -2.0651095693061155E-002
 DIRECTION dim           13  value    7.1604839306245742E-004
 DIRECTION dim           14  value    2.2691778875253178E-003
 DIRECTION dim           15  value   -2.4598321844582619E-002
 DIRECTION dim           16  value   -1.9808469998579766E-002
 DIRECTION dim           17  value   -1.8099328754732316E-002
 DIRECTION dim           18  value    4.8712336299607114E-004
 DIRECTION dim           19  value   -1.8357008851216695E-002
 DIRECTION dim           20  value    2.6469496599255453E-002
 DIRECTION dim           21  value   -1.3183159261159842E-002
 DIRECTION dim           22  value   -1.5221233035797506E-002
 DIRECTION dim           23  value    4.2549661302932681E-003
 DIRECTION dim           24  value   -1.3677654641882539E-002
 DIRECTION dim           25  value   -8.6658510251152905E-003
 DIRECTION dim           26  value    4.8637063979822624E-003
 DIRECTION dim           27  value   -2.1085595407612592E-002
 DIRECTION dim           28  value    6.4002444126019950E-002
 DIRECTION dim           29  value    4.6428585229902473E-002
 DIRECTION dim           30  value   -1.3971819309254518E-002
 DIRECTION dim           31  value    7.1070768371164807E-003
 DIRECTION dim           32  value    6.1975263206754803E-002
 DIRECTION dim           33  value   -1.6928231162731063E-002
 DIRECTION dim           34  value   -4.1376879526220801E-002
 DIRECTION dim           35  value   -9.0163446017338493E-003
 DIRECTION dim           36  value   -7.2555298768947245E-003
 DIRECTION dim           37  value   -2.1512473236171559E-002
 DIRECTION dim           38  value    1.4221126168317583E-002
 DIRECTION dim           39  value    2.2191175502675905E-002
 DIRECTION dim           40  value   -6.6148697561147374E-003
 DIRECTION dim           41  value   -2.3986434252754315E-002
 DIRECTION dim           42  value   -8.5416075939911650E-003
 DIRECTION dim           43  value   -3.0605796800918992E-002
 DIRECTION dim           44  value    1.0195271139981926E-002
 DIRECTION dim           45  value    7.8622151421067279E-003
 DIRECTION dim           46  value    1.0675768329199864E-002
 DIRECTION dim           47  value   -3.5989414457403363E-002
 DIRECTION dim           48  value   -6.6200598131998092E-002
  Cycle:     18 Energy:      -459.059442  Gnorm:      1.324505  CPU:    0.106
 ALPHA BEFORE:   0.16376390261260673     
 XC BEFORE:    1.3396806999743203E-003
  ** Opt : line minimisation
left   ...       0.00000000    -459.05944207
centre ...       0.04094098    -459.21452449
right  ...       0.08188195    -459.34983972

left   ...       0.00000000    -459.05944207
centre ...       0.04094098    -459.21452449
right  ...       0.08188195    -459.34983972
new    ...       0.34167066    -459.70738930

__s__    ...       0.25978870

left   ...       0.04094098    -459.21452449
centre ...       0.08188195    -459.34983972
right  ...       0.34167066    -459.70738930
new    ...       0.31906909    -459.71158534

__s__    ...      -0.02260156

 ALPHA AFTER:   0.31906909145462353     
 XC AFTER:   -2.3270255908623455E-003
 SANITY CHECK:   0.31906909145462353     
 DIRECTION dim            1  value   -1.1491888086433867E-002
 DIRECTION dim            2  value    3.0395689891339870E-002
 DIRECTION dim            3  value   -9.4854848719822978E-003
 DIRECTION dim            4  value   -4.5691399730412675E-002
 DIRECTION dim            5  value    3.1984076000733386E-003
 DIRECTION dim            6  value   -1.6021026875533018E-002
 DIRECTION dim            7  value   -6.2428825161589402E-003
 DIRECTION dim            8  value   -2.9497710349093249E-003
 DIRECTION dim            9  value   -1.8965540238430098E-002
 DIRECTION dim           10  value    3.3109549151658417E-002
 DIRECTION dim           11  value    2.6121321118179934E-002
 DIRECTION dim           12  value   -3.8537427998648847E-003
 DIRECTION dim           13  value    4.9131904476645552E-003
 DIRECTION dim           14  value    1.0605623545018161E-002
 DIRECTION dim           15  value   -1.0450353806130051E-002
 DIRECTION dim           16  value   -1.6884024188924603E-002
 DIRECTION dim           17  value   -9.1501152907751491E-003
 DIRECTION dim           18  value   -1.0312193564229830E-002
 DIRECTION dim           19  value   -1.9847005896035764E-002
 DIRECTION dim           20  value    2.9027187516945968E-002
 DIRECTION dim           21  value    1.6923885286091532E-002
 DIRECTION dim           22  value   -1.0632654755547311E-002
 DIRECTION dim           23  value   -7.8296481032892364E-003
 DIRECTION dim           24  value   -1.2756999579888583E-002
 DIRECTION dim           25  value   -6.1361819456260463E-003
 DIRECTION dim           26  value    6.6024415678027967E-003
 DIRECTION dim           27  value   -9.4455572167867381E-003
 DIRECTION dim           28  value    5.6089912001797720E-002
 DIRECTION dim           29  value    4.0946242946844284E-002
[...]
centre ...       0.00000000    -471.45344558
right  ...       0.00000089    -471.45327058
new    ...      -0.00000044    -471.45344558

__s__    ...       0.00000044

 ALPHA AFTER:   -4.4388538204118451E-007
 XC AFTER:  -0.14998823223313273     
 SANITY CHECK:    0.0000000000000000     
 DIRECTION dim            1  value    2.3269621102505527E-006
 DIRECTION dim            2  value   -1.6728231931827869E-005
 DIRECTION dim            3  value   -4.5911857777862996E-005
 DIRECTION dim            4  value    3.5793799695313015E-006
 DIRECTION dim            5  value   -3.0576123514876353E-005
 DIRECTION dim            6  value    5.5003532692313723E-005
 DIRECTION dim            7  value    6.4203840738299273E-005
 DIRECTION dim            8  value    5.5031545174009515E-005
 DIRECTION dim            9  value   -2.4241216960005385E-004
 DIRECTION dim           10  value    1.5759188537022733E-004
 DIRECTION dim           11  value   -2.6616562924391102E-005
 DIRECTION dim           12  value    2.0396296402856272E-005
 DIRECTION dim           13  value    1.4332699909615115E-004
 DIRECTION dim           14  value   -8.0154552963148840E-005
 DIRECTION dim           15  value   -1.3483898662650567E-004
 DIRECTION dim           16  value    1.2444815835709562E-004
 DIRECTION dim           17  value   -1.1121419703503969E-004
 DIRECTION dim           18  value   -3.2390837430938958E-005
 DIRECTION dim           19  value    6.1381797268315454E-005
 DIRECTION dim           20  value    3.0133818655981439E-005
 DIRECTION dim           21  value    2.2702823462305514E-004
 DIRECTION dim           22  value   -1.3641857959073973E-005
 DIRECTION dim           23  value    3.1384025032888770E-005
 DIRECTION dim           24  value    2.8431105300635313E-005
 DIRECTION dim           25  value    1.3227739497333684E-004
 DIRECTION dim           26  value    1.5561714601972840E-005
 DIRECTION dim           27  value   -4.2019273673295484E-005
 DIRECTION dim           28  value    5.4198049982656291E-005
 DIRECTION dim           29  value    6.7729683490554303E-005
 DIRECTION dim           30  value    1.6921059061235152E-004
 DIRECTION dim           31  value    2.7053782752528095E-005
 DIRECTION dim           32  value   -5.4916065072923159E-005
 DIRECTION dim           33  value   -1.5153302563827034E-004
 DIRECTION dim           34  value   -4.5268679515309304E-005
 DIRECTION dim           35  value    5.3100711472273006E-005
 DIRECTION dim           36  value    7.5780863717388351E-005
 DIRECTION dim           37  value    1.0492829952093449E-004
 DIRECTION dim           38  value    7.1479473224110896E-005
 DIRECTION dim           39  value    1.5288665089163486E-004
 DIRECTION dim           40  value   -2.8298587341855187E-005
 DIRECTION dim           41  value    7.7904853608428386E-005
 DIRECTION dim           42  value   -1.0108636940980926E-004
 DIRECTION dim           43  value   -1.4454089289277939E-005
 DIRECTION dim           44  value   -6.4106023739181735E-005
 DIRECTION dim           45  value   -3.0982088574004416E-005
 DIRECTION dim           46  value    3.3945748012268461E-006
 DIRECTION dim           47  value    1.9238931346331756E-005
 DIRECTION dim           48  value    3.6228426462085740E-006
  Cycle:    327 Energy:      -471.453446  Gnorm:      0.012939  CPU:    2.320
 ALPHA BEFORE:    3.5510970330769139E-006
 XC BEFORE:  -0.14998823223313273     
  ** Opt : line minimisation
left   ...       0.00000000    -471.45344558
centre ...       0.00000089    -471.45327058
right  ...      -0.00000089    -471.45344558

left   ...      -0.00000089    -471.45344558
centre ...       0.00000000    -471.45344558
right  ...       0.00000089    -471.45327058
new    ...      -0.00000044    -471.45344558

__s__    ...       0.00000044

 ALPHA AFTER:   -4.4388538204118451E-007
 XC AFTER:  -0.14998823223313273     
 SANITY CHECK:    0.0000000000000000     
 DIRECTION dim            1  value    2.3269621102505527E-006
 DIRECTION dim            2  value   -1.6728231931827869E-005
 DIRECTION dim            3  value   -4.5911857777862996E-005
 DIRECTION dim            4  value    3.5793799695313015E-006
 DIRECTION dim            5  value   -3.0576123514876353E-005
 DIRECTION dim            6  value    5.5003532692313723E-005
 DIRECTION dim            7  value    6.4203840738299273E-005
 DIRECTION dim            8  value    5.5031545174009515E-005
 DIRECTION dim            9  value   -2.4241216960005385E-004
 DIRECTION dim           10  value    1.5759188537022733E-004
 DIRECTION dim           11  value   -2.6616562924391102E-005
 DIRECTION dim           12  value    2.0396296402856272E-005
 DIRECTION dim           13  value    1.4332699909615115E-004
 DIRECTION dim           14  value   -8.0154552963148840E-005
 DIRECTION dim           15  value   -1.3483898662650567E-004
 DIRECTION dim           16  value    1.2444815835709562E-004
 DIRECTION dim           17  value   -1.1121419703503969E-004
 DIRECTION dim           18  value   -3.2390837430938958E-005
 DIRECTION dim           19  value    6.1381797268315454E-005
 DIRECTION dim           20  value    3.0133818655981439E-005
 DIRECTION dim           21  value    2.2702823462305514E-004
 DIRECTION dim           22  value   -1.3641857959073973E-005
 DIRECTION dim           23  value    3.1384025032888770E-005
 DIRECTION dim           24  value    2.8431105300635313E-005
 DIRECTION dim           25  value    1.3227739497333684E-004
 DIRECTION dim           26  value    1.5561714601972840E-005
 DIRECTION dim           27  value   -4.2019273673295484E-005
 DIRECTION dim           28  value    5.4198049982656291E-005
 DIRECTION dim           29  value    6.7729683490554303E-005
 DIRECTION dim           30  value    1.6921059061235152E-004
 DIRECTION dim           31  value    2.7053782752528095E-005
 DIRECTION dim           32  value   -5.4916065072923159E-005
 DIRECTION dim           33  value   -1.5153302563827034E-004
 DIRECTION dim           34  value   -4.5268679515309304E-005
 DIRECTION dim           35  value    5.3100711472273006E-005
 DIRECTION dim           36  value    7.5780863717388351E-005
 DIRECTION dim           37  value    1.0492829952093449E-004
 DIRECTION dim           38  value    7.1479473224110896E-005
 DIRECTION dim           39  value    1.5288665089163486E-004
 DIRECTION dim           40  value   -2.8298587341855187E-005
 DIRECTION dim           41  value    7.7904853608428386E-005
 DIRECTION dim           42  value   -1.0108636940980926E-004
 DIRECTION dim           43  value   -1.4454089289277939E-005
 DIRECTION dim           44  value   -6.4106023739181735E-005
 DIRECTION dim           45  value   -3.0982088574004416E-005
 DIRECTION dim           46  value    3.3945748012268461E-006
 DIRECTION dim           47  value    1.9238931346331756E-005
 DIRECTION dim           48  value    3.6228426462085740E-006
  Cycle:    328 Energy:      -471.453446  Gnorm:      0.012939  CPU:    2.328
 ALPHA BEFORE:    3.5510970330769139E-006
 XC BEFORE:  -0.14998823223313273     
  ** Opt : line minimisation
left   ...       0.00000000    -471.45344558
centre ...       0.00000089    -471.45327058
right  ...      -0.00000089    -471.45344558

left   ...      -0.00000089    -471.45344558
centre ...       0.00000000    -471.45344558
right  ...       0.00000089    -471.45327058
new    ...      -0.00000044    -471.45344558

__s__    ...       0.00000044

 ALPHA AFTER:   -4.4388538204118451E-007
 XC AFTER:  -0.14998823223313273     
 SANITY CHECK:    0.0000000000000000     
 DIRECTION dim            1  value    2.3269621102505527E-006
 DIRECTION dim            2  value   -1.6728231931827869E-005
 DIRECTION dim            3  value   -4.5911857777862996E-005
 DIRECTION dim            4  value    3.5793799695313015E-006
 DIRECTION dim            5  value   -3.0576123514876353E-005
 DIRECTION dim            6  value    5.5003532692313723E-005
 DIRECTION dim            7  value    6.4203840738299273E-005
 DIRECTION dim            8  value    5.5031545174009515E-005
 DIRECTION dim            9  value   -2.4241216960005385E-004
 DIRECTION dim           10  value    1.5759188537022733E-004
 DIRECTION dim           11  value   -2.6616562924391102E-005
 DIRECTION dim           12  value    2.0396296402856272E-005
 DIRECTION dim           13  value    1.4332699909615115E-004
 DIRECTION dim           14  value   -8.0154552963148840E-005
 DIRECTION dim           15  value   -1.3483898662650567E-004
 DIRECTION dim           16  value    1.2444815835709562E-004
 DIRECTION dim           17  value   -1.1121419703503969E-004
 DIRECTION dim           18  value   -3.2390837430938958E-005
 DIRECTION dim           19  value    6.1381797268315454E-005
 DIRECTION dim           20  value    3.0133818655981439E-005
 DIRECTION dim           21  value    2.2702823462305514E-004
 DIRECTION dim           22  value   -1.3641857959073973E-005
 DIRECTION dim           23  value    3.1384025032888770E-005
 DIRECTION dim           24  value    2.8431105300635313E-005
 DIRECTION dim           25  value    1.3227739497333684E-004
 DIRECTION dim           26  value    1.5561714601972840E-005
 DIRECTION dim           27  value   -4.2019273673295484E-005
 DIRECTION dim           28  value    5.4198049982656291E-005
 DIRECTION dim           29  value    6.7729683490554303E-005
 DIRECTION dim           30  value    1.6921059061235152E-004
 DIRECTION dim           31  value    2.7053782752528095E-005
 DIRECTION dim           32  value   -5.4916065072923159E-005
 DIRECTION dim           33  value   -1.5153302563827034E-004
 DIRECTION dim           34  value   -4.5268679515309304E-005
 DIRECTION dim           35  value    5.3100711472273006E-005
 DIRECTION dim           36  value    7.5780863717388351E-005
 DIRECTION dim           37  value    1.0492829952093449E-004
 DIRECTION dim           38  value    7.1479473224110896E-005
 DIRECTION dim           39  value    1.5288665089163486E-004
 DIRECTION dim           40  value   -2.8298587341855187E-005
 DIRECTION dim           41  value    7.7904853608428386E-005
 DIRECTION dim           42  value   -1.0108636940980926E-004
 DIRECTION dim           43  value   -1.4454089289277939E-005
 DIRECTION dim           44  value   -6.4106023739181735E-005
 DIRECTION dim           45  value   -3.0982088574004416E-005
 DIRECTION dim           46  value    3.3945748012268461E-006
 DIRECTION dim           47  value    1.9238931346331756E-005
 DIRECTION dim           48  value    3.6228426462085740E-006
  Cycle:    329 Energy:      -471.453446  Gnorm:      0.012939  CPU:    2.337
 ALPHA BEFORE:    3.5510970330769139E-006
 XC BEFORE:  -0.14998823223313273     
  ** Opt : line minimisation
left   ...       0.00000000    -471.45344558
centre ...       0.00000089    -471.45327058
right  ...      -0.00000089    -471.45344558

left   ...      -0.00000089    -471.45344558
centre ...       0.00000000    -471.45344558
right  ...       0.00000089    -471.45327058
new    ...      -0.00000044    -471.45344558

__s__    ...       0.00000044

 ALPHA AFTER:   -4.4388538204118451E-007
 XC AFTER:  -0.14998823223313273     
 SANITY CHECK:    0.0000000000000000     
 DIRECTION dim            1  value    2.3269621102505527E-006
 DIRECTION dim            2  value   -1.6728231931827869E-005
 DIRECTION dim            3  value   -4.5911857777862996E-005
 DIRECTION dim            4  value    3.5793799695313015E-006
 DIRECTION dim            5  value   -3.0576123514876353E-005
 DIRECTION dim            6  value    5.5003532692313723E-005
 DIRECTION dim            7  value    6.4203840738299273E-005
 DIRECTION dim            8  value    5.5031545174009515E-005
 DIRECTION dim            9  value   -2.4241216960005385E-004
 DIRECTION dim           10  value    1.5759188537022733E-004
 DIRECTION dim           11  value   -2.6616562924391102E-005
 DIRECTION dim           12  value    2.0396296402856272E-005
 DIRECTION dim           13  value    1.4332699909615115E-004
 DIRECTION dim           14  value   -8.0154552963148840E-005
 DIRECTION dim           15  value   -1.3483898662650567E-004
 DIRECTION dim           16  value    1.2444815835709562E-004
 DIRECTION dim           17  value   -1.1121419703503969E-004
 DIRECTION dim           18  value   -3.2390837430938958E-005
 DIRECTION dim           19  value    6.1381797268315454E-005
 DIRECTION dim           20  value    3.0133818655981439E-005
 DIRECTION dim           21  value    2.2702823462305514E-004
 DIRECTION dim           22  value   -1.3641857959073973E-005
 DIRECTION dim           23  value    3.1384025032888770E-005
 DIRECTION dim           24  value    2.8431105300635313E-005
 DIRECTION dim           25  value    1.3227739497333684E-004
 DIRECTION dim           26  value    1.5561714601972840E-005
 DIRECTION dim           27  value   -4.2019273673295484E-005
 DIRECTION dim           28  value    5.4198049982656291E-005
 DIRECTION dim           29  value    6.7729683490554303E-005
 DIRECTION dim           30  value    1.6921059061235152E-004
 DIRECTION dim           31  value    2.7053782752528095E-005
 DIRECTION dim           32  value   -5.4916065072923159E-005
 DIRECTION dim           33  value   -1.5153302563827034E-004
 DIRECTION dim           34  value   -4.5268679515309304E-005
 DIRECTION dim           35  value    5.3100711472273006E-005
 DIRECTION dim           36  value    7.5780863717388351E-005
 DIRECTION dim           37  value    1.0492829952093449E-004
 DIRECTION dim           38  value    7.1479473224110896E-005
 DIRECTION dim           39  value    1.5288665089163486E-004
 DIRECTION dim           40  value   -2.8298587341855187E-005
 DIRECTION dim           41  value    7.7904853608428386E-005
 DIRECTION dim           42  value   -1.0108636940980926E-004
 DIRECTION dim           43  value   -1.4454089289277939E-005
 DIRECTION dim           44  value   -6.4106023739181735E-005
 DIRECTION dim           45  value   -3.0982088574004416E-005
 DIRECTION dim           46  value    3.3945748012268461E-006
 DIRECTION dim           47  value    1.9238931346331756E-005
 DIRECTION dim           48  value    3.6228426462085740E-006


  **** Too many failed attempts to optimise ****

  Final energy =    -471.45344558 eV
  Final Gnorm  =       0.01293899

  Components of energy : 

--------------------------------------------------------------------------------
  Interatomic potentials     =          69.03275712 eV    
  Monopole - monopole (real) =        -252.65892568 eV    
  Monopole - monopole (recip)=        -287.82727702 eV    
  Monopole - monopole (total)=        -540.48620270 eV    
--------------------------------------------------------------------------------
  Total lattice energy       =        -471.45344558 eV    
--------------------------------------------------------------------------------
  Total lattice energy       =          -45488.0507 kJ/(mole unit cells)
--------------------------------------------------------------------------------

  Final fractional coordinates of atoms :

--------------------------------------------------------------------------------
   No.  Atomic        x           y          z          Radius
        Label       (Frac)      (Frac)     (Frac)       (Angs) 
--------------------------------------------------------------------------------
     1  O     c     0.500000    0.250000    0.600000    0.000000
     2  O     c     0.850012    0.317637    0.782282    0.000000
     3  O     c     0.029238    0.813879    0.850683    0.000000
     4  O     c     0.503391    0.298104    0.110168    0.000000
     5  O     c     0.673211    0.827463    0.204206    0.000000
     6  O     c     0.085856    0.564927    0.161836    0.000000
     7  O     c     0.828196    0.966288    0.629017    0.000000
     8  O     c     0.265643    0.377156    0.393543    0.000000
     9  O     c     0.252916    0.687031    0.565953    0.000000
    10  Sr    c     0.098810    0.942435    0.335469    0.000000
    11  Sr    c     0.284211    0.454875    0.912956    0.000000
    12  Sr    c     0.462673    0.977964    0.995398    0.000000
    13  Ti    c     0.271037    0.917568    0.661685    0.000000
    14  Ti    c     0.521227    0.522501    0.205649    0.000000
    15  Ti    c     0.068213    0.363700    0.587519    0.000000
--------------------------------------------------------------------------------

  Final Cartesian lattice vectors (Angstroms) :

        3.643592   -0.549425    0.749579
       -1.098850    6.282764    0.531290
        1.873947    0.664112   10.253945


  Final cell parameters and derivatives :

--------------------------------------------------------------------------------
       a            3.760252 Angstrom     dE/de1(xx)     0.014454 eV/strain
       b            6.400223 Angstrom     dE/de2(yy)     0.064106 eV/strain
       c           10.444908 Angstrom     dE/de3(zz)     0.030982 eV/strain
       alpha       83.505624 Degrees      dE/de4(yz)    -0.003395 eV/strain
       beta        68.884198 Degrees      dE/de5(xz)    -0.019239 eV/strain
       gamma      107.052477 Degrees      dE/de6(xy)    -0.003623 eV/strain
--------------------------------------------------------------------------------

  Primitive cell volume =           217.336013 Angs**3

  Density of cell =      4.206120 g/cm**3

  Non-primitive cell volume =           217.336013 Angs**3


  Final internal derivatives :

--------------------------------------------------------------------------------
   No.  Atomic          a             b             c           Radius
        Label          (eV)          (eV)          (eV)        (eV/Angs)
--------------------------------------------------------------------------------
      1 O     c       0.000000      0.000000      0.000000      0.000000
      2 O     c      -0.002327      0.016728      0.045912      0.000000
      3 O     c      -0.003579      0.030576     -0.055004      0.000000
      4 O     c      -0.064204     -0.055032      0.242412      0.000000
      5 O     c      -0.157592      0.026617     -0.020396      0.000000
      6 O     c      -0.143327      0.080155      0.134839      0.000000
      7 O     c      -0.124448      0.111214      0.032391      0.000000
      8 O     c      -0.061382     -0.030134     -0.227028      0.000000
      9 O     c       0.013642     -0.031384     -0.028431      0.000000
     10 Sr    c      -0.132277     -0.015562      0.042019      0.000000
     11 Sr    c      -0.054198     -0.067730     -0.169211      0.000000
     12 Sr    c      -0.027054      0.054916      0.151533      0.000000
     13 Ti    c       0.045269     -0.053101     -0.075781      0.000000
     14 Ti    c      -0.104928     -0.071479     -0.152887      0.000000
     15 Ti    c       0.028299     -0.077905      0.101086      0.000000
--------------------------------------------------------------------------------
  Maximum abs         0.157592      0.111214      0.242412      0.000000
--------------------------------------------------------------------------------


  Time to end of optimisation =       2.3453 seconds

 Exiting ------OPTIONS------

  Peak dynamic memory used =       0.55 MB 


  Timing analysis for GULP :

--------------------------------------------------------------------------------
  Task / Subroutine                                          Time (Seconds)
--------------------------------------------------------------------------------
  Calculation of reciprocal space energy and derivatives          0.1801
  Calculation of real space energy and derivatives                2.1233
  Global summation overhead                                       0.0009
--------------------------------------------------------------------------------
  Total CPU time                                                  2.3453
--------------------------------------------------------------------------------


  Job Finished at 13:26.26 21st February   2020                               

