********************************************************************************
*                       GENERAL UTILITY LATTICE PROGRAM                        *
*                                 Julian Gale                                  *
*                       Curtin Institute for Computation                       *
*                           Department of Chemistry                            *
*                    Curtin University, Western Australia                      *
********************************************************************************
* Version = 5.1.1 * Last modified =  25th August 2019                          *
********************************************************************************
*  optimise     - perform optimisation run                                     *
*  conp         - constant pressure calculation                                *
*  nosymmetry   - turn off symmetry after initial structure generation         *
*  full         - generate full unit cell when symmetry is removed             *
*  conjugate    - use conjugate gradients minimiser                            *
********************************************************************************
* ASE calculation                                                              *
********************************************************************************


  Job Started  at 11:58.48  4th February   2020                               

  Number of CPUs =     1


  Total number of configurations input =      1

********************************************************************************
*  Input for Configuration =   1                                               *
********************************************************************************

  Formula = O9Sr3Ti3                                                    

  Number of irreducible atoms/shells =      15


  Total number atoms/shells =      15

  Dimensionality = 3               :  Bulk   



  Cartesian lattice vectors (Angstroms) :

        4.000000    0.000000    0.000000
        0.000000    4.000000    0.000000
        0.000000    0.000000    8.000000

  Cell parameters (Angstroms/Degrees):

  a =       4.0000    alpha =  90.0000
  b =       4.0000    beta  =  90.0000
  c =       8.0000    gamma =  90.0000

  Initial cell volume =         128.000000 Angs**3

  Temperature of configuration =  0.000     K 

  Pressure of configuration =         0.000 GPa 

  Fractional coordinates of asymmetric unit :

--------------------------------------------------------------------------------
   No.  Atomic       x           y          z         Charge      Occupancy
        Label      (Frac)      (Frac)     (Frac)        (e)         (Frac)  
--------------------------------------------------------------------------------
      1 O     c    0.000000    0.500000    0.250000    -2.00000    1.000000    
      2 O     c    0.500000 *  0.500000 *  0.250000 *  -2.00000    1.000000    
      3 O     c    0.000000 *  0.500000 *  0.500000 *  -2.00000    1.000000    
      4 O     c    0.500000 *  0.000000 *  0.500000 *  -2.00000    1.000000    
      5 O     c    0.500000 *  0.500000 *  0.750000 *  -2.00000    1.000000    
      6 O     c    0.000000 *  0.000000 *  0.000000 *  -2.00000    1.000000    
      7 O     c    0.000000 *  0.000000 *  0.500000 *  -2.00000    1.000000    
      8 O     c    0.500000 *  0.000000 *  0.000000 *  -2.00000    1.000000    
      9 O     c    0.000000 *  0.500000 *  0.750000 *  -2.00000    1.000000    
     10 Sr    c    0.750000 *  0.250000 *  0.375000 *   2.00000    1.000000    
     11 Sr    c    0.750000 *  0.750000 *  0.875000 *   2.00000    1.000000    
     12 Sr    c    0.750000 *  0.750000 *  0.125000 *   2.00000    1.000000    
     13 Ti    c    0.750000 *  0.250000 *  0.875000 *   4.00000    1.000000    
     14 Ti    c    0.250000 *  0.250000 *  0.125000 *   4.00000    1.000000    
     15 Ti    c    0.250000 *  0.750000 *  0.125000 *   4.00000    1.000000    
--------------------------------------------------------------------------------



********************************************************************************
*  General input information                                                   *
********************************************************************************

  Species output for all configurations : 

--------------------------------------------------------------------------------
  Species    Type    Atomic    Atomic    Charge       Radii (Angs)     Library
                     Number     Mass       (e)     Cova   Ionic  VDW   Symbol
--------------------------------------------------------------------------------
    O        Core        8      16.00  -2.000000   0.730  0.000  1.360          
    Sr       Core       38      87.62   2.000000   1.120  0.000  1.670          
    Ti       Core       22      47.88   4.000000   1.470  0.000  2.190          
--------------------------------------------------------------------------------


  Lattice summation method               =    Ewald          (3-D)
                                         =    Parry          (2-D)
                                         =    Saunders et al (1-D)
  Accuracy factor for lattice sums       =   12.000


  Time limit = Infinity

  Maximum range for interatomic potentials =    100000.000000 Angstroms

  General interatomic potentials :

--------------------------------------------------------------------------------
Atom  Types   Potential      Parameter       Value         Units   Cutoffs(Ang)
  1     2                                                            Min /  Max 
--------------------------------------------------------------------------------
O    c Sr   c Buckingham    Buckingham A     1952.3900    eV        0.000 10.000
                            Buckingham rho  0.33685000    Ang       
                            Buckingham C     19.220000    eV*Ang^6  
--------------------------------------------------------------------------------
O    c Ti   c Buckingham    Buckingham A     4590.7279    eV        0.000 10.000
                            Buckingham rho  0.26100000    Ang       
                            Buckingham C     0.0000000    eV*Ang^6  
--------------------------------------------------------------------------------
O    c O    c Buckingham    Buckingham A     1388.7700    eV        0.000 10.000
                            Buckingham rho  0.36262000    Ang       
                            Buckingham C     175.00000    eV*Ang^6  
--------------------------------------------------------------------------------
 Calling ------OPTIONS------

********************************************************************************
*  Output for configuration   1                                                *
********************************************************************************


  Components of energy : 

--------------------------------------------------------------------------------
  Interatomic potentials     =         252.05488473 eV    
  Monopole - monopole (real) =        -121.78183040 eV    
  Monopole - monopole (recip)=        -176.23510212 eV    
  Monopole - monopole (total)=        -298.01693251 eV    
--------------------------------------------------------------------------------
  Total lattice energy       =         -45.96204778 eV    
--------------------------------------------------------------------------------
  Total lattice energy       =           -4434.6350 kJ/(mole unit cells)
--------------------------------------------------------------------------------


  Number of variables =       48

  Maximum number of calculations  =          1000
  Maximum Hessian update interval =            10
  Maximum step size               =   1.000000000
  Maximum parameter tolerance     =   0.000010000
  Maximum function  tolerance     =   0.000010000
  Maximum gradient  tolerance     =   0.001000000
  Maximum gradient  component     =   0.010000000

  Cell parameters to be optimised using strains

  Conjugate gradient optimiser to be used

  Lower half triangular hessian to be used

  Start of bulk optimisation :

  Cycle:      0 Energy:       -45.962048  Gnorm:     36.523722  CPU:    0.014
 Perform trimming
 Line minimisation2
 ALPHA BEFORE:    1.0000000000000000     
  ** Opt : line minimisation
left   ...       0.00000000     -45.96204778
centre ...       0.25000000    -151.94574012
right  ...       0.50000000    -221.62406934

left   ...       0.00000000     -45.96204778
centre ...       0.25000000    -151.94574012
right  ...       0.50000000    -221.62406934
new    ...       0.85480741    -287.03404440

__s__    ...       0.35480741

left   ...       0.25000000    -151.94574012
centre ...       0.50000000    -221.62406934
right  ...       0.85480741    -287.03404440
new    ...       1.26821821    -314.48515249

__s__    ...       0.41341080

left   ...       0.50000000    -221.62406934
centre ...       0.85480741    -287.03404440
right  ...       1.26821821    -314.48515249
new    ...       1.27774861    -314.41575039

__s__    ...       0.00953040

 ALPHA AFTER:    1.2682182118296077     
  Cycle:      1 Energy:      -314.485152  Gnorm:     13.410267  CPU:    0.024
 Perform trimming
 Line minimisation2
 ALPHA BEFORE:    1.2682182118296077     
  ** Opt : line minimisation
left   ...       0.00000000    -314.48515249
centre ...       0.31705455    -370.80072688
right  ...       0.63410911    -378.00898542

left   ...       0.00000000    -314.48515249
centre ...       0.31705455    -370.80072688
right  ...       0.63410911    -378.00898542
new    ...       0.52212095    -379.91588132

__s__    ...      -0.11198816

left   ...       0.31705455    -370.80072688
centre ...       0.52212095    -379.91588132
right  ...       0.63410911    -378.00898542
new    ...       0.53420707    -379.91549646

__s__    ...       0.01208613

 ALPHA AFTER:   0.52212094790919983     
  Cycle:      2 Energy:      -379.915881  Gnorm:      8.568949  CPU:    0.029
 Line minimisation2
 ALPHA BEFORE:   0.52212094790919983     
  ** Opt : line minimisation
left   ...       0.00000000    -379.91588132
centre ...       0.13053024    -397.25641924
right  ...       0.26106047    -408.42393032

left   ...       0.00000000    -379.91588132
centre ...       0.13053024    -397.25641924
right  ...       0.26106047    -408.42393032
new    ...       0.43193524    -415.52115264

__s__    ...       0.17087477

left   ...       0.13053024    -397.25641924
centre ...       0.26106047    -408.42393032
right  ...       0.43193524    -415.52115264
new    ...       0.48869066    -416.29538504

__s__    ...       0.05675542

left   ...       0.26106047    -408.42393032
centre ...       0.43193524    -415.52115264
right  ...       0.48869066    -416.29538504
new    ...       0.51597605    -416.41812379

__s__    ...       0.02728539

 ALPHA AFTER:   0.51597605100345589     
  Cycle:      3 Energy:      -416.418124  Gnorm:      6.097445  CPU:    0.035
 Line minimisation2
 ALPHA BEFORE:   0.51597605100345589     
  ** Opt : line minimisation
left   ...       0.00000000    -416.41812379
centre ...       0.12899401    -426.11071668
right  ...       0.25798803    -432.87290986

left   ...       0.00000000    -416.41812379
centre ...       0.12899401    -426.11071668
right  ...       0.25798803    -432.87290986
new    ...       0.49115773    -437.37092697

__s__    ...       0.23316970

left   ...       0.12899401    -426.11071668
centre ...       0.25798803    -432.87290986
right  ...       0.49115773    -437.37092697
new    ...       0.48000647    -437.38732200

__s__    ...      -0.01115126

 ALPHA AFTER:   0.48000647124612084     
  Cycle:      4 Energy:      -437.387322  Gnorm:      3.021298  CPU:    0.039
 Line minimisation2
 ALPHA BEFORE:   0.48000647124612084     
  ** Opt : line minimisation
left   ...       0.00000000    -437.38732200
centre ...       0.12000162    -439.56411347
right  ...       0.24000324    -441.10247142

left   ...       0.00000000    -437.38732200
centre ...       0.12000162    -439.56411347
right  ...       0.24000324    -441.10247142
new    ...       0.46915617    -442.12422413

__s__    ...       0.22915293

left   ...       0.12000162    -439.56411347
centre ...       0.24000324    -441.10247142
right  ...       0.46915617    -442.12422413
new    ...       0.44768361    -442.14244666

__s__    ...      -0.02147255

 ALPHA AFTER:   0.44768361479788837     
  Cycle:      5 Energy:      -442.142447  Gnorm:      3.216024  CPU:    0.043
 Line minimisation2
 ALPHA BEFORE:   0.44768361479788837     
  ** Opt : line minimisation
left   ...       0.00000000    -442.14244666
centre ...       0.11192090    -444.32214878
right  ...       0.22384181    -445.55860860

left   ...       0.00000000    -442.14244666
centre ...       0.11192090    -444.32214878
right  ...       0.22384181    -445.55860860
new    ...       0.31459414    -445.79577918

__s__    ...       0.09075233

 ALPHA AFTER:   0.31459413622145116     
  Cycle:      6 Energy:      -445.795779  Gnorm:      2.259055  CPU:    0.046
 Line minimisation2
 ALPHA BEFORE:   0.31459413622145116     
  ** Opt : line minimisation
left   ...       0.00000000    -445.79577918
centre ...       0.07864853    -446.58237916
right  ...       0.15729707    -447.21935784

left   ...       0.00000000    -445.79577918
centre ...       0.07864853    -446.58237916
right  ...       0.15729707    -447.21935784
new    ...       0.45280102    -448.19755165

__s__    ...       0.29550396

left   ...       0.07864853    -446.58237916
centre ...       0.15729707    -447.21935784
right  ...       0.45280102    -448.19755165
new    ...       0.43436551    -448.20507453

__s__    ...      -0.01843552

 ALPHA AFTER:   0.43436550891310094     
  Cycle:      7 Energy:      -448.205075  Gnorm:      2.196026  CPU:    0.049
 Line minimisation2
 ALPHA BEFORE:   0.43436550891310094     
  ** Opt : line minimisation
left   ...       0.00000000    -448.20507453
centre ...       0.10859138    -449.24822229
right  ...       0.21718275    -450.05251924

left   ...       0.00000000    -448.20507453
centre ...       0.10859138    -449.24822229
right  ...       0.21718275    -450.05251924
new    ...       0.52855347    -451.13930305

__s__    ...       0.31137071

left   ...       0.10859138    -449.24822229
centre ...       0.21718275    -450.05251924
right  ...       0.52855347    -451.13930305
new    ...       0.56000859    -451.15649231

__s__    ...       0.03145512

 ALPHA AFTER:   0.56000859419336890     
  Cycle:      8 Energy:      -451.156492  Gnorm:      2.187116  CPU:    0.054
 Line minimisation2
 ALPHA BEFORE:   0.56000859419336890     
  ** Opt : line minimisation
left   ...       0.00000000    -451.15649231
centre ...       0.14000215    -452.45330858
right  ...       0.28000430    -453.18608453

left   ...       0.00000000    -451.15649231
centre ...       0.14000215    -452.45330858
right  ...       0.28000430    -453.18608453
new    ...       0.39188775    -453.36400562

__s__    ...       0.11188345

 ALPHA AFTER:   0.39188774860696490     
  Cycle:      9 Energy:      -453.364006  Gnorm:      2.014606  CPU:    0.058
 Line minimisation2
 ALPHA BEFORE:   0.39188774860696490     
  ** Opt : line minimisation
left   ...       0.00000000    -453.36400562
centre ...       0.09797194    -453.97478327
right  ...       0.19594387    -454.01768205

left   ...       0.00000000    -453.36400562
centre ...       0.09797194    -453.97478327
right  ...       0.19594387    -454.01768205
new    ...       0.15435892    -454.06639445

__s__    ...      -0.04158496

 ALPHA AFTER:   0.15435891522753653     
  Cycle:     10 Energy:      -454.066394  Gnorm:      1.335786  CPU:    0.063
 Line minimisation2
 ALPHA BEFORE:   0.15435891522753653     
  ** Opt : line minimisation
left   ...       0.00000000    -454.06639445
centre ...       0.03858973    -454.21730861
right  ...       0.07717946    -454.35655197

left   ...       0.00000000    -454.06639445
centre ...       0.03858973    -454.21730861
right  ...       0.07717946    -454.35655197
new    ...       0.51829540    -455.04353402

__s__    ...       0.44111594

left   ...       0.03858973    -454.21730861
centre ...       0.07717946    -454.35655197
right  ...       0.51829540    -455.04353402
new    ...       0.47986977    -455.05496181

__s__    ...      -0.03842563

 ALPHA AFTER:   0.47986976874625675     
  Cycle:     11 Energy:      -455.054962  Gnorm:      1.170089  CPU:    0.068
 Line minimisation2
 ALPHA BEFORE:   0.47986976874625675     
  ** Opt : line minimisation
left   ...       0.00000000    -455.05496181
centre ...       0.11996744    -455.37670949
right  ...       0.23993488    -455.61344471

left   ...       0.00000000    -455.05496181
centre ...       0.11996744    -455.37670949
right  ...       0.23993488    -455.61344471
new    ...       0.51402597    -455.84693844

__s__    ...       0.27409109

left   ...       0.11996744    -455.37670949
centre ...       0.23993488    -455.61344471
right  ...       0.51402597    -455.84693844
new    ...       0.52664982    -455.84770630

__s__    ...       0.01262384

 ALPHA AFTER:   0.52664981774159758     
  Cycle:     12 Energy:      -455.847706  Gnorm:      1.587657  CPU:    0.074
 Perform trimming
 Line minimisation2
 ALPHA BEFORE:   0.52664981774159758     
  ** Opt : line minimisation
left   ...       0.00000000    -455.84770630
centre ...       0.13166245    -456.31666169
right  ...       0.26332491    -456.54907495

left   ...       0.00000000    -455.84770630
centre ...       0.13166245    -456.31666169
right  ...       0.26332491    -456.54907495
new    ...       0.32685795    -456.58266993

__s__    ...       0.06353304

 ALPHA AFTER:   0.32685795164805498     
  Cycle:     13 Energy:      -456.582670  Gnorm:      1.742252  CPU:    0.078
 Line minimisation2
 ALPHA BEFORE:   0.32685795164805498     
  ** Opt : line minimisation
left   ...       0.00000000    -456.58266993
centre ...       0.08171449    -457.09389229
right  ...       0.16342898    -457.47685696

left   ...       0.00000000    -456.58266993
centre ...       0.08171449    -457.09389229
right  ...       0.16342898    -457.47685696
new    ...       0.36656307    -457.94678013

__s__    ...       0.20313409

left   ...       0.08171449    -457.09389229
centre ...       0.16342898    -457.47685696
right  ...       0.36656307    -457.94678013
new    ...       0.40382616    -457.96740162

__s__    ...       0.03726309

 ALPHA AFTER:   0.40382616310448660     
  Cycle:     14 Energy:      -457.967402  Gnorm:      1.579740  CPU:    0.084
 Line minimisation2
 ALPHA BEFORE:   0.40382616310448660     
  ** Opt : line minimisation
left   ...       0.00000000    -457.96740162
centre ...       0.10095654    -458.50516544
right  ...       0.20191308    -458.91961970

left   ...       0.00000000    -457.96740162
centre ...       0.10095654    -458.50516544
right  ...       0.20191308    -458.91961970
new    ...       0.49075862    -459.38395041

__s__    ...       0.28884554

left   ...       0.10095654    -458.50516544
centre ...       0.20191308    -458.91961970
right  ...       0.49075862    -459.38395041
new    ...       0.47177401    -459.38811924

__s__    ...      -0.01898461

 ALPHA AFTER:   0.47177401355014514     
  Cycle:     15 Energy:      -459.388119  Gnorm:      1.612718  CPU:    0.089
 Line minimisation2
 ALPHA BEFORE:   0.47177401355014514     
  ** Opt : line minimisation
left   ...       0.00000000    -459.38811924
centre ...       0.11794350    -460.00001674
right  ...       0.23588701    -460.43650124

left   ...       0.00000000    -459.38811924
centre ...       0.11794350    -460.00001674
right  ...       0.23588701    -460.43650124
new    ...       0.47039699    -460.52884564

__s__    ...       0.23450999

 ALPHA AFTER:   0.47039699268810148     
  Cycle:     16 Energy:      -460.528846  Gnorm:      1.716570  CPU:    0.094
 Line minimisation2
 ALPHA BEFORE:   0.47039699268810148     
  ** Opt : line minimisation
left   ...       0.00000000    -460.52884564
centre ...       0.11759925    -460.91867994
right  ...       0.23519850    -461.06899080

left   ...       0.00000000    -460.52884564
centre ...       0.11759925    -460.91867994
right  ...       0.23519850    -461.06899080
new    ...       0.25019725    -461.06834619

__s__    ...       0.01499876

 ALPHA AFTER:   0.23519849634405074     
  Cycle:     17 Energy:      -461.068991  Gnorm:      1.775465  CPU:    0.099
 Line minimisation2
 ALPHA BEFORE:   0.23519849634405074     
  ** Opt : line minimisation
left   ...       0.00000000    -461.06899080
centre ...       0.05879962    -461.45224796
right  ...       0.11759925    -461.75520069

left   ...       0.00000000    -461.06899080
centre ...       0.05879962    -461.45224796
right  ...       0.11759925    -461.75520069
new    ...       0.31002416    -462.27870193

__s__    ...       0.19242491

left   ...       0.05879962    -461.45224796
centre ...       0.11759925    -461.75520069
right  ...       0.31002416    -462.27870193
new    ...       0.35434232    -462.31323308

__s__    ...       0.04431816

 ALPHA AFTER:   0.35434232019560935     
  Cycle:     18 Energy:      -462.313233  Gnorm:      1.438907  CPU:    0.104
 Line minimisation2
 ALPHA BEFORE:   0.35434232019560935     
  ** Opt : line minimisation
left   ...       0.00000000    -462.31323308
centre ...       0.08858558    -462.71202976
right  ...       0.17717116    -463.02897950

left   ...       0.00000000    -462.31323308
centre ...       0.08858558    -462.71202976
right  ...       0.17717116    -463.02897950
new    ...       0.47592326    -463.50075329

__s__    ...       0.29875210

left   ...       0.08858558    -462.71202976
centre ...       0.17717116    -463.02897950
right  ...       0.47592326    -463.50075329
new    ...       0.47955910    -463.50083454

__s__    ...       0.00363584

 ALPHA AFTER:   0.47955909762469262     
  Cycle:     19 Energy:      -463.500835  Gnorm:      1.276180  CPU:    0.110
 Line minimisation2
 ALPHA BEFORE:   0.47955909762469262     
  ** Opt : line minimisation
left   ...       0.00000000    -463.50083454
centre ...       0.11988977    -463.85442878
right  ...       0.23977955    -464.02900535

left   ...       0.00000000    -463.50083454
centre ...       0.11988977    -463.85442878
right  ...       0.23977955    -464.02900535
new    ...       0.29675021    -464.04814918

__s__    ...       0.05697066

 ALPHA AFTER:   0.29675020588786577     
  Cycle:     20 Energy:      -464.048149  Gnorm:      0.929504  CPU:    0.115
 Line minimisation2
 ALPHA BEFORE:   0.29675020588786577     
  ** Opt : line minimisation
left   ...       0.00000000    -464.04814918
centre ...       0.07418755    -464.18183946
right  ...       0.14837510    -464.29366371

left   ...       0.00000000    -464.04814918
centre ...       0.07418755    -464.18183946
right  ...       0.14837510    -464.29366371
new    ...       0.49068099    -464.50823893

__s__    ...       0.34230589

left   ...       0.07418755    -464.18183946
centre ...       0.14837510    -464.29366371
right  ...       0.49068099    -464.50823893
new    ...       0.46779038    -464.50997212

__s__    ...      -0.02289061

 ALPHA AFTER:   0.46779038131854683     
  Cycle:     21 Energy:      -464.509972  Gnorm:      0.864207  CPU:    0.121
 Line minimisation2
 ALPHA BEFORE:   0.46779038131854683     
  ** Opt : line minimisation
left   ...       0.00000000    -464.50997212
centre ...       0.11694760    -464.69319729
right  ...       0.23389519    -464.84916366

left   ...       0.00000000    -464.50997212
centre ...       0.11694760    -464.69319729
right  ...       0.23389519    -464.84916366
new    ...       0.84455936    -465.18661408

__s__    ...       0.61066417

left   ...       0.11694760    -464.69319729
centre ...       0.23389519    -464.84916366
right  ...       0.84455936    -465.18661408
new    ...       0.79662208    -465.19041742

__s__    ...      -0.04793728

 ALPHA AFTER:   0.79662208270339685     
  Cycle:     22 Energy:      -465.190417  Gnorm:      0.975815  CPU:    0.127
 Line minimisation2
 ALPHA BEFORE:   0.79662208270339685     
  ** Opt : line minimisation
left   ...       0.00000000    -465.19041742
centre ...       0.19915552    -465.49466992
right  ...       0.39831104    -465.54374188

left   ...       0.00000000    -465.19041742
centre ...       0.19915552    -465.49466992
right  ...       0.39831104    -465.54374188
new    ...       0.33703147    -465.55659247

__s__    ...      -0.06127957

 ALPHA AFTER:   0.33703146726144850     
  Cycle:     23 Energy:      -465.556592  Gnorm:      0.534344  CPU:    0.131
 Line minimisation2
 ALPHA BEFORE:   0.33703146726144850     
  ** Opt : line minimisation
left   ...       0.00000000    -465.55659247
centre ...       0.08425787    -465.60690616
right  ...       0.16851573    -465.64755330

left   ...       0.00000000    -465.55659247
centre ...       0.08425787    -465.60690616
right  ...       0.16851573    -465.64755330
new    ...       0.48068512    -465.71690687

__s__    ...       0.31216938

left   ...       0.08425787    -465.60690616
centre ...       0.16851573    -465.64755330
right  ...       0.48068512    -465.71690687
new    ...       0.49381050    -465.71682964

__s__    ...       0.01312538

 ALPHA AFTER:   0.48068511771897715     
  Cycle:     24 Energy:      -465.716907  Gnorm:      0.512954  CPU:    0.137
 Line minimisation2
 ALPHA BEFORE:   0.48068511771897715     
  ** Opt : line minimisation
left   ...       0.00000000    -465.71690687
centre ...       0.12017128    -465.77847710
right  ...       0.24034256    -465.81815465

left   ...       0.00000000    -465.71690687
centre ...       0.12017128    -465.77847710
right  ...       0.24034256    -465.81815465
new    ...       0.39805117    -465.83807285

__s__    ...       0.15770862

 ALPHA AFTER:   0.39805117437187598     
  Cycle:     25 Energy:      -465.838073  Gnorm:      0.494539  CPU:    0.144
 Line minimisation2
 ALPHA BEFORE:   0.39805117437187598     
  ** Opt : line minimisation
left   ...       0.00000000    -465.83807285
centre ...       0.09951279    -465.88852167
right  ...       0.19902559    -465.92618931

left   ...       0.00000000    -465.83807285
centre ...       0.09951279    -465.88852167
right  ...       0.19902559    -465.92618931
new    ...       0.44254519    -465.96641516

__s__    ...       0.24351960

left   ...       0.09951279    -465.88852167
centre ...       0.19902559    -465.92618931
right  ...       0.44254519    -465.96641516
new    ...       0.45359015    -465.96653339

__s__    ...       0.01104496

 ALPHA AFTER:   0.45359015089525001     
  Cycle:     26 Energy:      -465.966533  Gnorm:      0.490510  CPU:    0.149
 Line minimisation2
 ALPHA BEFORE:   0.45359015089525001     
  ** Opt : line minimisation
left   ...       0.00000000    -465.96653339
centre ...       0.11339754    -466.02286551
right  ...       0.22679508    -466.06606640

left   ...       0.00000000    -465.96653339
centre ...       0.11339754    -466.02286551
right  ...       0.22679508    -466.06606640
new    ...       0.54316714    -466.11667634

__s__    ...       0.31637206

left   ...       0.11339754    -466.02286551
centre ...       0.22679508    -466.06606640
right  ...       0.54316714    -466.11667634
new    ...       0.54052514    -466.11668264

__s__    ...      -0.00264199

 ALPHA AFTER:   0.54052514223166714     
  Cycle:     27 Energy:      -466.116683  Gnorm:      0.443907  CPU:    0.155
 Line minimisation2
 ALPHA BEFORE:   0.54052514223166714     
  ** Opt : line minimisation
left   ...       0.00000000    -466.11668264
centre ...       0.13513129    -466.17178952
right  ...       0.27026257    -466.21486014

left   ...       0.00000000    -466.11668264
centre ...       0.13513129    -466.17178952
right  ...       0.27026257    -466.21486014
new    ...       0.68625177    -466.27296472

__s__    ...       0.41598920

left   ...       0.13513129    -466.17178952
centre ...       0.27026257    -466.21486014
right  ...       0.68625177    -466.27296472
new    ...       0.69321930    -466.27299589

__s__    ...       0.00696753

 ALPHA AFTER:   0.69321930130567555     
  Cycle:     28 Energy:      -466.272996  Gnorm:      0.518600  CPU:    0.161
 Line minimisation2
 ALPHA BEFORE:   0.69321930130567555     
  ** Opt : line minimisation
left   ...       0.00000000    -466.27299589
centre ...       0.17330483    -466.35945217
right  ...       0.34660965    -466.40363210

left   ...       0.00000000    -466.27299589
centre ...       0.17330483    -466.35945217
right  ...       0.34660965    -466.40363210
new    ...       0.44106547    -466.41003421

__s__    ...       0.09445582

 ALPHA AFTER:   0.44106547322697209     
  Cycle:     29 Energy:      -466.410034  Gnorm:      0.458282  CPU:    0.165
 Line minimisation2
 ALPHA BEFORE:   0.44106547322697209     
  ** Opt : line minimisation
left   ...       0.00000000    -466.41003421
centre ...       0.11026637    -466.45158882
right  ...       0.22053274    -466.47111169

left   ...       0.00000000    -466.41003421
centre ...       0.11026637    -466.45158882
right  ...       0.22053274    -466.47111169
new    ...       0.26310923    -466.47272733

__s__    ...       0.04257649

 ALPHA AFTER:   0.26310922916126572     
  Cycle:     30 Energy:      -466.472727  Gnorm:      0.324855  CPU:    0.170
 Line minimisation2
 ALPHA BEFORE:   0.26310922916126572     
  ** Opt : line minimisation
left   ...       0.00000000    -466.47272733
centre ...       0.06577731    -466.48749564
right  ...       0.13155461    -466.50010178

left   ...       0.00000000    -466.47272733
centre ...       0.06577731    -466.48749564
right  ...       0.13155461    -466.50010178
new    ...       0.48217063    -466.53083768

__s__    ...       0.35061601

left   ...       0.06577731    -466.48749564
centre ...       0.13155461    -466.50010178
right  ...       0.48217063    -466.53083768
new    ...       0.48237666    -466.53083723

__s__    ...       0.00020603

 ALPHA AFTER:   0.48217062519140652     
  Cycle:     31 Energy:      -466.530838  Gnorm:      0.290437  CPU:    0.174
 Line minimisation2
 ALPHA BEFORE:   0.48217062519140652     
  ** Opt : line minimisation
left   ...       0.00000000    -466.53083768
centre ...       0.12054266    -466.55197359
right  ...       0.24108531    -466.56953036

left   ...       0.00000000    -466.53083768
centre ...       0.12054266    -466.55197359
right  ...       0.24108531    -466.56953036
new    ...       0.77211182    -466.60148289

__s__    ...       0.53102651

left   ...       0.12054266    -466.55197359
centre ...       0.24108531    -466.56953036
right  ...       0.77211182    -466.60148289
new    ...       0.73593487    -466.60155626

__s__    ...      -0.03617695

 ALPHA AFTER:   0.73593487132813318     
  Cycle:     32 Energy:      -466.601556  Gnorm:      0.322139  CPU:    0.178
 Line minimisation2
 ALPHA BEFORE:   0.73593487132813318     
  ** Opt : line minimisation
left   ...       0.00000000    -466.60155626
centre ...       0.18398372    -466.63820829
right  ...       0.36796744    -466.65915751

left   ...       0.00000000    -466.60155626
centre ...       0.18398372    -466.63820829
right  ...       0.36796744    -466.65915751
new    ...       0.52142965    -466.66484588

__s__    ...       0.15346222

 ALPHA AFTER:   0.52142965142337550     
  Cycle:     33 Energy:      -466.664846  Gnorm:      0.311515  CPU:    0.181
 Line minimisation2
 ALPHA BEFORE:   0.52142965142337550     
  ** Opt : line minimisation
left   ...       0.00000000    -466.66484588
centre ...       0.13035741    -466.69043427
right  ...       0.26071483    -466.70890047

left   ...       0.00000000    -466.66484588
centre ...       0.13035741    -466.69043427
right  ...       0.26071483    -466.70890047
new    ...       0.53352382    -466.72439774

__s__    ...       0.27280900

left   ...       0.13035741    -466.69043427
centre ...       0.26071483    -466.70890047
right  ...       0.53352382    -466.72439774
new    ...       0.53207422    -466.72439844

__s__    ...      -0.00144960

 ALPHA AFTER:   0.53207421971984026     
  Cycle:     34 Energy:      -466.724398  Gnorm:      0.302497  CPU:    0.186
 Line minimisation2
 ALPHA BEFORE:   0.53207421971984026     
  ** Opt : line minimisation
left   ...       0.00000000    -466.72439844
centre ...       0.13301855    -466.74848501
right  ...       0.26603711    -466.76492353

left   ...       0.00000000    -466.72439844
centre ...       0.13301855    -466.74848501
right  ...       0.26603711    -466.76492353
new    ...       0.48543436    -466.77531749

__s__    ...       0.21939725

left   ...       0.13301855    -466.74848501
centre ...       0.26603711    -466.76492353
right  ...       0.48543436    -466.77531749
new    ...       0.48527965    -466.77531776

__s__    ...      -0.00015471

 ALPHA AFTER:   0.48527964915730509     
  Cycle:     35 Energy:      -466.775318  Gnorm:      0.290998  CPU:    0.190
 Line minimisation2
 ALPHA BEFORE:   0.48527964915730509     
  ** Opt : line minimisation
left   ...       0.00000000    -466.77531776
centre ...       0.12131991    -466.79755597
right  ...       0.24263982    -466.81677163

left   ...       0.00000000    -466.77531776
centre ...       0.12131991    -466.79755597
right  ...       0.24263982    -466.81677163
new    ...       0.95326341    -466.87769121

__s__    ...       0.71062359

left   ...       0.12131991    -466.79755597
centre ...       0.24263982    -466.81677163
right  ...       0.95326341    -466.87769121
new    ...       1.08872084    -466.87911216

__s__    ...       0.13545742

 ALPHA AFTER:    1.0887208350467763     
  Cycle:     36 Energy:      -466.879112  Gnorm:      0.421739  CPU:    0.194
 Perform trimming
 Line minimisation2
 ALPHA BEFORE:    1.0887208350467763     
  ** Opt : line minimisation
left   ...       0.00000000    -466.87911216
centre ...       0.27218021    -466.93546839
right  ...       0.54436042    -466.94921655

left   ...       0.00000000    -466.87911216
centre ...       0.27218021    -466.93546839
right  ...       0.54436042    -466.94921655
new    ...       0.49609357    -466.95006398

__s__    ...      -0.04826685

 ALPHA AFTER:   0.49609356752738359     
  Cycle:     37 Energy:      -466.950064  Gnorm:      0.364247  CPU:    0.198
 Line minimisation2
 ALPHA BEFORE:   0.49609356752738359     
  ** Opt : line minimisation
left   ...       0.00000000    -466.95006398
centre ...       0.12402339    -466.98345368
right  ...       0.24804678    -467.00961197

left   ...       0.00000000    -466.95006398
centre ...       0.12402339    -466.98345368
right  ...       0.24804678    -467.00961197
new    ...       0.63466634    -467.04372772

__s__    ...       0.38661955

left   ...       0.12402339    -466.98345368
centre ...       0.24804678    -467.00961197
right  ...       0.63466634    -467.04372772
new    ...       0.62501446    -467.04389909

__s__    ...      -0.00965188

 ALPHA AFTER:   0.62501445635957587     
  Cycle:     38 Energy:      -467.043899  Gnorm:      0.383409  CPU:    0.202
 Line minimisation2
 ALPHA BEFORE:   0.62501445635957587     
  ** Opt : line minimisation
left   ...       0.00000000    -467.04389909
centre ...       0.15625361    -467.08900095
right  ...       0.31250723    -467.12045786

left   ...       0.00000000    -467.04389909
centre ...       0.15625361    -467.08900095
right  ...       0.31250723    -467.12045786
new    ...       0.59460535    -467.13986439

__s__    ...       0.28209812

left   ...       0.15625361    -467.08900095
centre ...       0.31250723    -467.12045786
right  ...       0.59460535    -467.13986439
new    ...       0.56732929    -467.13968331

__s__    ...      -0.02727606

 ALPHA AFTER:   0.59460535170023698     
  Cycle:     39 Energy:      -467.139864  Gnorm:      0.472029  CPU:    0.206
 Line minimisation2
 ALPHA BEFORE:   0.59460535170023698     
  ** Opt : line minimisation
left   ...       0.00000000    -467.13986439
centre ...       0.14865134    -467.19037339
right  ...       0.29730268    -467.19242370

left   ...       0.00000000    -467.13986439
centre ...       0.14865134    -467.19037339
right  ...       0.29730268    -467.19242370
new    ...       0.22926651    -467.19736764

__s__    ...      -0.06803617

 ALPHA AFTER:   0.22926651036597182     
  Cycle:     40 Energy:      -467.197368  Gnorm:      0.305386  CPU:    0.210
 Line minimisation2
 ALPHA BEFORE:   0.22926651036597182     
  ** Opt : line minimisation
left   ...       0.00000000    -467.19736764
centre ...       0.05731663    -467.20871648
right  ...       0.11463326    -467.21873171

left   ...       0.00000000    -467.19736764
centre ...       0.05731663    -467.20871648
right  ...       0.11463326    -467.21873171
new    ...       0.51641411    -467.25089836

__s__    ...       0.40178086

left   ...       0.05731663    -467.20871648
centre ...       0.11463326    -467.21873171
right  ...       0.51641411    -467.25089836
new    ...       0.50963739    -467.25093480

__s__    ...      -0.00677672

 ALPHA AFTER:   0.50963739498197369     
  Cycle:     41 Energy:      -467.250935  Gnorm:      0.277903  CPU:    0.214
 Line minimisation2
 ALPHA BEFORE:   0.50963739498197369     
  ** Opt : line minimisation
left   ...       0.00000000    -467.25093480
centre ...       0.12740935    -467.27192373
right  ...       0.25481870    -467.29043928

left   ...       0.00000000    -467.25093480
centre ...       0.12740935    -467.27192373
right  ...       0.25481870    -467.29043928
new    ...       1.14488887    -467.35442867

__s__    ...       0.89007017

left   ...       0.12740935    -467.27192373
centre ...       0.25481870    -467.29043928
right  ...       1.14488887    -467.35442867
new    ...       1.19793651    -467.35448622

__s__    ...       0.05304764

 ALPHA AFTER:    1.1979365103102524     
  Cycle:     42 Energy:      -467.354486  Gnorm:      0.446253  CPU:    0.218
 Perform trimming
 Line minimisation2
 ALPHA BEFORE:    1.1979365103102524     
  ** Opt : line minimisation
left   ...       0.00000000    -467.35448622
centre ...       0.29948413    -467.41984449
right  ...       0.59896826    -467.47069293

left   ...       0.00000000    -467.35448622
centre ...       0.29948413    -467.41984449
right  ...       0.59896826    -467.47069293
new    ...       1.49874168    -467.52709868

__s__    ...       0.89977342

left   ...       0.29948413    -467.41984449
centre ...       0.59896826    -467.47069293
right  ...       1.49874168    -467.52709868
new    ...       1.39984255    -467.52840270

__s__    ...      -0.09889913

 ALPHA AFTER:    1.3998425486536150     
  Cycle:     43 Energy:      -467.528403  Gnorm:      0.761794  CPU:    0.223
 Perform trimming
 Line minimisation2
 ALPHA BEFORE:    1.3998425486536150     
  ** Opt : line minimisation
left   ...       0.00000000    -467.52840270
centre ...       0.34996064    -467.71382229
right  ...       0.69992127    -467.82093398

left   ...       0.00000000    -467.52840270
centre ...       0.34996064    -467.71382229
right  ...       0.69992127    -467.82093398
new    ...       1.00362674    -467.85279136

__s__    ...       0.30370546

 ALPHA AFTER:    1.0036267352560184     
  Cycle:     44 Energy:      -467.852791  Gnorm:      0.731570  CPU:    0.226
 Line minimisation2
 ALPHA BEFORE:    1.0036267352560184     
  ** Opt : line minimisation
left   ...       0.00000000    -467.85279136
centre ...       0.25090668    -468.06762815
right  ...       0.50181337    -468.07917564

left   ...       0.00000000    -467.85279136
centre ...       0.25090668    -468.06762815
right  ...       0.50181337    -468.07917564
new    ...       0.39061234    -468.10024451

__s__    ...      -0.11120103

 ALPHA AFTER:   0.39061234104590897     
  Cycle:     45 Energy:      -468.100245  Gnorm:      0.625258  CPU:    0.230
 Line minimisation2
 ALPHA BEFORE:   0.39061234104590897     
  ** Opt : line minimisation
left   ...       0.00000000    -468.10024451
centre ...       0.09765309    -468.18314288
right  ...       0.19530617    -468.25722767

left   ...       0.00000000    -468.10024451
centre ...       0.09765309    -468.18314288
right  ...       0.19530617    -468.25722767
new    ...       0.96732774    -468.44648140

__s__    ...       0.77202157

left   ...       0.09765309    -468.18314288
centre ...       0.19530617    -468.25722767
right  ...       0.96732774    -468.44648140
new    ...       0.78889952    -468.47322951

__s__    ...      -0.17842821

 ALPHA AFTER:   0.78889952150111742     
  Cycle:     46 Energy:      -468.473230  Gnorm:      0.572637  CPU:    0.234
 Line minimisation2
 ALPHA BEFORE:   0.78889952150111742     
  ** Opt : line minimisation
left   ...       0.00000000    -468.47322951
centre ...       0.19722488    -468.59841306
right  ...       0.39444976    -468.68050220

left   ...       0.00000000    -468.47322951
centre ...       0.19722488    -468.59841306
right  ...       0.39444976    -468.68050220
new    ...       0.67152453    -468.72468490

__s__    ...       0.27707477

 ALPHA AFTER:   0.67152453143618906     
  Cycle:     47 Energy:      -468.724685  Gnorm:      0.764224  CPU:    0.237
 Perform trimming
 Line minimisation2
 ALPHA BEFORE:   0.67152453143618906     
  ** Opt : line minimisation
left   ...       0.00000000    -468.72468490
centre ...       0.16788113    -468.87785658
right  ...       0.33576227    -468.97348333

left   ...       0.00000000    -468.72468490
centre ...       0.16788113    -468.87785658
right  ...       0.33576227    -468.97348333
new    ...       0.53080244    -469.01143680

__s__    ...       0.19504018

 ALPHA AFTER:   0.53080244336845117     
  Cycle:     48 Energy:      -469.011437  Gnorm:      0.579624  CPU:    0.241
 Line minimisation2
 ALPHA BEFORE:   0.53080244336845117     
  ** Opt : line minimisation
left   ...       0.00000000    -469.01143680
centre ...       0.13270061    -469.10142496
right  ...       0.26540122    -469.17084216

left   ...       0.00000000    -469.01143680
centre ...       0.13270061    -469.10142496
right  ...       0.26540122    -469.17084216
new    ...       0.64685255    -469.25133884

__s__    ...       0.38145133

left   ...       0.13270061    -469.10142496
centre ...       0.26540122    -469.17084216
right  ...       0.64685255    -469.25133884
new    ...       0.62995850    -469.25171840

__s__    ...      -0.01689404

 ALPHA AFTER:   0.62995850431850953     
  Cycle:     49 Energy:      -469.251718  Gnorm:      0.590231  CPU:    0.245
 Line minimisation2
 ALPHA BEFORE:   0.62995850431850953     
  ** Opt : line minimisation
left   ...       0.00000000    -469.25171840
centre ...       0.15748963    -469.34840011
right  ...       0.31497925    -469.38762951

left   ...       0.00000000    -469.25171840
centre ...       0.15748963    -469.34840011
right  ...       0.31497925    -469.38762951
new    ...       0.34377103    -469.38855797

__s__    ...       0.02879177

 ALPHA AFTER:   0.34377102681641702     
  Cycle:     50 Energy:      -469.388558  Gnorm:      0.462022  CPU:    0.248
 Line minimisation2
 ALPHA BEFORE:   0.34377102681641702     
  ** Opt : line minimisation
left   ...       0.00000000    -469.38855797
centre ...       0.08594276    -469.42683856
right  ...       0.17188551    -469.45875909

left   ...       0.00000000    -469.38855797
centre ...       0.08594276    -469.42683856
right  ...       0.17188551    -469.45875909
new    ...       0.56025214    -469.52114880

__s__    ...       0.38836662

left   ...       0.08594276    -469.42683856
centre ...       0.17188551    -469.45875909
right  ...       0.56025214    -469.52114880
new    ...       0.54682563    -469.52143998

__s__    ...      -0.01342650

 ALPHA AFTER:   0.54682563368575920     
  Cycle:     51 Energy:      -469.521440  Gnorm:      0.574619  CPU:    0.253
 Perform trimming
 Line minimisation2
 ALPHA BEFORE:   0.54682563368575920     
  ** Opt : line minimisation
left   ...       0.00000000    -469.52143998
centre ...       0.13670641    -469.59784157
right  ...       0.27341282    -469.65606182

left   ...       0.00000000    -469.52143998
centre ...       0.13670641    -469.59784157
right  ...       0.27341282    -469.65606182
new    ...       0.64282089    -469.73080957

__s__    ...       0.36940807

left   ...       0.13670641    -469.59784157
centre ...       0.27341282    -469.65606182
right  ...       0.64282089    -469.73080957
new    ...       0.68718687    -469.73196969

__s__    ...       0.04436599

 ALPHA AFTER:   0.68718687435202896     
  Cycle:     52 Energy:      -469.731970  Gnorm:      0.512793  CPU:    0.257
 Line minimisation2
 ALPHA BEFORE:   0.68718687435202896     
  ** Opt : line minimisation
left   ...       0.00000000    -469.73196969
centre ...       0.17179672    -469.82386182
right  ...       0.34359344    -469.89113331

left   ...       0.00000000    -469.73196969
centre ...       0.17179672    -469.82386182
right  ...       0.34359344    -469.89113331
new    ...       0.72709900    -469.95188933

__s__    ...       0.38350556

left   ...       0.17179672    -469.82386182
centre ...       0.34359344    -469.89113331
right  ...       0.72709900    -469.95188933
new    ...       0.72400429    -469.95188957

__s__    ...      -0.00309471

 ALPHA AFTER:   0.72400428953337381     
  Cycle:     53 Energy:      -469.951890  Gnorm:      0.673925  CPU:    0.261
 Perform trimming
 Line minimisation2
 ALPHA BEFORE:   0.72400428953337381     
  ** Opt : line minimisation
left   ...       0.00000000    -469.95188957
centre ...       0.18100107    -470.07513949
right  ...       0.36200214    -470.16502413

left   ...       0.00000000    -469.95188957
centre ...       0.18100107    -470.07513949
right  ...       0.36200214    -470.16502413
new    ...       0.75911068    -470.24708821

__s__    ...       0.39710853

left   ...       0.18100107    -470.07513949
centre ...       0.36200214    -470.16502413
right  ...       0.75911068    -470.24708821
new    ...       0.76657724    -470.24713598

__s__    ...       0.00746657

 ALPHA AFTER:   0.76657724343619549     
  Cycle:     54 Energy:      -470.247136  Gnorm:      0.697198  CPU:    0.265
 Line minimisation2
 ALPHA BEFORE:   0.76657724343619549     
  ** Opt : line minimisation
left   ...       0.00000000    -470.24713598
centre ...       0.19164431    -470.42517440
right  ...       0.38328862    -470.53027054

left   ...       0.00000000    -470.24713598
centre ...       0.19164431    -470.42517440
right  ...       0.38328862    -470.53027054
new    ...       0.56358991    -470.56454728

__s__    ...       0.18030128

 ALPHA AFTER:   0.56358990523842689     
  Cycle:     55 Energy:      -470.564547  Gnorm:      0.595446  CPU:    0.269
 Line minimisation2
 ALPHA BEFORE:   0.56358990523842689     
  ** Opt : line minimisation
left   ...       0.00000000    -470.56454728
centre ...       0.14089748    -470.66821808
right  ...       0.28179495    -470.74978604

left   ...       0.00000000    -470.56454728
centre ...       0.14089748    -470.66821808
right  ...       0.28179495    -470.74978604
new    ...       0.73131218    -470.85086611

__s__    ...       0.44951723

left   ...       0.14089748    -470.66821808
centre ...       0.28179495    -470.74978604
right  ...       0.73131218    -470.85086611
new    ...       0.69404328    -470.85232216

__s__    ...      -0.03726891

 ALPHA AFTER:   0.69404327733735593     
  Cycle:     56 Energy:      -470.852322  Gnorm:      0.497665  CPU:    0.273
 Line minimisation2
 ALPHA BEFORE:   0.69404327733735593     
  ** Opt : line minimisation
left   ...       0.00000000    -470.85232216
centre ...       0.17351082    -470.92849892
right  ...       0.34702164    -470.96316320

left   ...       0.00000000    -470.85232216
centre ...       0.17351082    -470.92849892
right  ...       0.34702164    -470.96316320
new    ...       0.40515340    -470.96546108

__s__    ...       0.05813176

 ALPHA AFTER:   0.40515339868816619     
  Cycle:     57 Energy:      -470.965461  Gnorm:      0.377421  CPU:    0.276
 Line minimisation2
 ALPHA BEFORE:   0.40515339868816619     
  ** Opt : line minimisation
left   ...       0.00000000    -470.96546108
centre ...       0.10128835    -470.99452932
right  ...       0.20257670    -471.01898567

left   ...       0.00000000    -470.96546108
centre ...       0.10128835    -470.99452932
right  ...       0.20257670    -471.01898567
new    ...       0.68905389    -471.07296621

__s__    ...       0.48647719

left   ...       0.10128835    -470.99452932
centre ...       0.20257670    -471.01898567
right  ...       0.68905389    -471.07296621
new    ...       0.69571717    -471.07314179

__s__    ...       0.00666328

 ALPHA AFTER:   0.69571716794741290     
  Cycle:     58 Energy:      -471.073142  Gnorm:      0.392701  CPU:    0.281
 Line minimisation2
 ALPHA BEFORE:   0.69571716794741290     
  ** Opt : line minimisation
left   ...       0.00000000    -471.07314179
centre ...       0.17392929    -471.12235486
right  ...       0.34785858    -471.14965053

left   ...       0.00000000    -471.07314179
centre ...       0.17392929    -471.12235486
right  ...       0.34785858    -471.14965053
new    ...       0.47750344    -471.15581896

__s__    ...       0.12964486

 ALPHA AFTER:   0.47750344464389366     
  Cycle:     59 Energy:      -471.155819  Gnorm:      0.345911  CPU:    0.284
 Line minimisation2
 ALPHA BEFORE:   0.47750344464389366     
  ** Opt : line minimisation
left   ...       0.00000000    -471.15581896
centre ...       0.11937586    -471.18190275
right  ...       0.23875172    -471.19583685

left   ...       0.00000000    -471.15581896
centre ...       0.11937586    -471.18190275
right  ...       0.23875172    -471.19583685
new    ...       0.31597238    -471.19829703

__s__    ...       0.07722066

 ALPHA AFTER:   0.31597238100511382     
  Cycle:     60 Energy:      -471.198297  Gnorm:      0.293993  CPU:    0.287
 Line minimisation2
 ALPHA BEFORE:   0.31597238100511382     
  ** Opt : line minimisation
left   ...       0.00000000    -471.19829703
centre ...       0.07899310    -471.21310726
right  ...       0.15798619    -471.22617799

left   ...       0.00000000    -471.19829703
centre ...       0.07899310    -471.21310726
right  ...       0.15798619    -471.22617799
new    ...       0.71204965    -471.27389012

__s__    ...       0.55406346

left   ...       0.07899310    -471.21310726
centre ...       0.15798619    -471.22617799
right  ...       0.71204965    -471.27389012
new    ...       0.77850887    -471.27438095

__s__    ...       0.06645922

 ALPHA AFTER:   0.77850886758387516     
  Cycle:     61 Energy:      -471.274381  Gnorm:      0.280983  CPU:    0.292
 Line minimisation2
 ALPHA BEFORE:   0.77850886758387516     
  ** Opt : line minimisation
left   ...       0.00000000    -471.27438095
centre ...       0.19462722    -471.30611299
right  ...       0.38925443    -471.33211005

left   ...       0.00000000    -471.27438095
centre ...       0.19462722    -471.30611299
right  ...       0.38925443    -471.33211005
new    ...       1.17419877    -471.37844975

__s__    ...       0.78494434

left   ...       0.19462722    -471.30611299
centre ...       0.38925443    -471.33211005
right  ...       1.17419877    -471.37844975
new    ...       1.16964747    -471.37845266

__s__    ...      -0.00455130

 ALPHA AFTER:    1.1696474697575765     
  Cycle:     62 Energy:      -471.378453  Gnorm:      0.325461  CPU:    0.296
 Perform trimming
 Line minimisation2
 ALPHA BEFORE:    1.1696474697575765     
  ** Opt : line minimisation
left   ...       0.00000000    -471.37845266
centre ...       0.29241187    -471.43395524
right  ...       0.58482373    -471.46168028

left   ...       0.00000000    -471.37845266
centre ...       0.29241187    -471.43395524
right  ...       0.58482373    -471.46168028
new    ...       0.73047689    -471.46520573

__s__    ...       0.14565316

 ALPHA AFTER:   0.73047689243706448     
  Cycle:     63 Energy:      -471.465206  Gnorm:      0.328363  CPU:    0.299
 Line minimisation2
 ALPHA BEFORE:   0.73047689243706448     
  ** Opt : line minimisation
left   ...       0.00000000    -471.46520573
centre ...       0.18261922    -471.50116263
right  ...       0.36523845    -471.51841915

left   ...       0.00000000    -471.46520573
centre ...       0.18261922    -471.50116263
right  ...       0.36523845    -471.51841915
new    ...       0.44244794    -471.52032500

__s__    ...       0.07720950

 ALPHA AFTER:   0.44244794205491622     
  Cycle:     64 Energy:      -471.520325  Gnorm:      0.249686  CPU:    0.304
 Line minimisation2
 ALPHA BEFORE:   0.44244794205491622     
  ** Opt : line minimisation
left   ...       0.00000000    -471.52032500
centre ...       0.11061199    -471.53468739
right  ...       0.22122397    -471.54622980

left   ...       0.00000000    -471.52032500
centre ...       0.11061199    -471.53468739
right  ...       0.22122397    -471.54622980
new    ...       0.61866401    -471.56216438

__s__    ...       0.39744003

left   ...       0.11061199    -471.53468739
centre ...       0.22122397    -471.54622980
right  ...       0.61866401    -471.56216438
new    ...       0.57844195    -471.56234432

__s__    ...      -0.04022206

 ALPHA AFTER:   0.57844194502930035     
  Cycle:     65 Energy:      -471.562344  Gnorm:      0.198887  CPU:    0.310
 Line minimisation2
 ALPHA BEFORE:   0.57844194502930035     
  ** Opt : line minimisation
left   ...       0.00000000    -471.56234432
centre ...       0.14461049    -471.57391831
right  ...       0.28922097    -471.58254574

left   ...       0.00000000    -471.56234432
centre ...       0.14461049    -471.57391831
right  ...       0.28922097    -471.58254574
new    ...       0.64032981    -471.59094146

__s__    ...       0.35110883

left   ...       0.14461049    -471.57391831
centre ...       0.28922097    -471.58254574
right  ...       0.64032981    -471.59094146
new    ...       0.63057119    -471.59093947

__s__    ...      -0.00975862

 ALPHA AFTER:   0.64032980691091412     
  Cycle:     66 Energy:      -471.590941  Gnorm:      0.217886  CPU:    0.315
 Line minimisation2
 ALPHA BEFORE:   0.64032980691091412     
  ** Opt : line minimisation
left   ...       0.00000000    -471.59094146
centre ...       0.16008245    -471.60553726
right  ...       0.32016490    -471.61455705

left   ...       0.00000000    -471.59094146
centre ...       0.16008245    -471.60553726
right  ...       0.32016490    -471.61455705
new    ...       0.49907522    -471.61756889

__s__    ...       0.17891032

 ALPHA AFTER:   0.49907521849893349     
  Cycle:     67 Energy:      -471.617569  Gnorm:      0.204664  CPU:    0.320
 Line minimisation2
 ALPHA BEFORE:   0.49907521849893349     
  ** Opt : line minimisation
left   ...       0.00000000    -471.61756889
centre ...       0.12476880    -471.62841162
right  ...       0.24953761    -471.63801785

left   ...       0.00000000    -471.61756889
centre ...       0.12476880    -471.62841162
right  ...       0.24953761    -471.63801785
new    ...       1.15647697    -471.66890969

__s__    ...       0.90693936

left   ...       0.12476880    -471.62841162
centre ...       0.24953761    -471.63801785
right  ...       1.15647697    -471.66890969
new    ...       1.11229142    -471.66905140

__s__    ...      -0.04418555

 ALPHA AFTER:    1.1122914222763380     
  Cycle:     68 Energy:      -471.669051  Gnorm:      0.224213  CPU:    0.325
 Line minimisation2
 ALPHA BEFORE:    1.1122914222763380     
  ** Opt : line minimisation
left   ...       0.00000000    -471.66905140
centre ...       0.27807286    -471.69565726
right  ...       0.55614571    -471.71183833

left   ...       0.00000000    -471.66905140
centre ...       0.27807286    -471.69565726
right  ...       0.55614571    -471.71183833
new    ...       0.84872684    -471.71713653

__s__    ...       0.29258113

 ALPHA AFTER:   0.84872683763494416     
  Cycle:     69 Energy:      -471.717137  Gnorm:      0.256244  CPU:    0.330
 Line minimisation2
 ALPHA BEFORE:   0.84872683763494416     
  ** Opt : line minimisation
left   ...       0.00000000    -471.71713653
centre ...       0.21218171    -471.73736690
right  ...       0.42436342    -471.73434423

left   ...       0.00000000    -471.71713653
centre ...       0.21218171    -471.73736690
right  ...       0.42436342    -471.73434423
new    ...       0.29069102    -471.73898202

__s__    ...      -0.13367240

left   ...       0.21218171    -471.73736690
centre ...       0.29069102    -471.73898202
right  ...       0.42436342    -471.73434423
new    ...       0.29092680    -471.73898213

__s__    ...       0.00023578

 ALPHA AFTER:   0.29092680064200471     
  Cycle:     70 Energy:      -471.738982  Gnorm:      0.187899  CPU:    0.335
 Line minimisation2
 ALPHA BEFORE:   0.29092680064200471     
  ** Opt : line minimisation
left   ...       0.00000000    -471.73898213
centre ...       0.07273170    -471.74453769
right  ...       0.14546340    -471.74932522

left   ...       0.00000000    -471.73898213
centre ...       0.07273170    -471.74453769
right  ...       0.14546340    -471.74932522
new    ...       0.56247345    -471.76636853

__s__    ...       0.41701005

left   ...       0.07273170    -471.74453769
centre ...       0.14546340    -471.74932522
right  ...       0.56247345    -471.76636853
new    ...       0.75501978    -471.76767302

__s__    ...       0.19254633

 ALPHA AFTER:   0.75501978333516162     
  Cycle:     71 Energy:      -471.767673  Gnorm:      0.203591  CPU:    0.341
 Line minimisation2
 ALPHA BEFORE:   0.75501978333516162     
  ** Opt : line minimisation
left   ...       0.00000000    -471.76767302
centre ...       0.18875495    -471.78248549
right  ...       0.37750989    -471.79356110

left   ...       0.00000000    -471.76767302
centre ...       0.18875495    -471.78248549
right  ...       0.37750989    -471.79356110
new    ...       0.84258002    -471.80376426

__s__    ...       0.46507013

left   ...       0.18875495    -471.78248549
centre ...       0.37750989    -471.79356110
right  ...       0.84258002    -471.80376426
new    ...       0.80526728    -471.80389361

__s__    ...      -0.03731274

 ALPHA AFTER:   0.80526727785292573     
  Cycle:     72 Energy:      -471.803894  Gnorm:      0.183152  CPU:    0.347
 Line minimisation2
 ALPHA BEFORE:   0.80526727785292573     
  ** Opt : line minimisation
left   ...       0.00000000    -471.80389361
centre ...       0.20131682    -471.81790005
right  ...       0.40263364    -471.82884072

left   ...       0.00000000    -471.80389361
centre ...       0.20131682    -471.81790005
right  ...       0.40263364    -471.82884072
new    ...       1.02040518    -471.84444837

__s__    ...       0.61777154

left   ...       0.20131682    -471.81790005
centre ...       0.40263364    -471.82884072
right  ...       1.02040518    -471.84444837
new    ...       1.06731407    -471.84448728

__s__    ...       0.04690889

 ALPHA AFTER:    1.0673140668476395     
  Cycle:     73 Energy:      -471.844487  Gnorm:      0.279705  CPU:    0.352
 Perform trimming
 Line minimisation2
 ALPHA BEFORE:    1.0673140668476395     
  ** Opt : line minimisation
left   ...       0.00000000    -471.84448728
centre ...       0.26682852    -471.86874633
right  ...       0.53365703    -471.88569276

left   ...       0.00000000    -471.84448728
centre ...       0.26682852    -471.86874633
right  ...       0.53365703    -471.88569276
new    ...       1.01859745    -471.89874774

__s__    ...       0.48494042

left   ...       0.26682852    -471.86874633
centre ...       0.53365703    -471.88569276
right  ...       1.01859745    -471.89874774
new    ...       1.05268267    -471.89875521

__s__    ...       0.03408521

 ALPHA AFTER:    1.0526826652454606     
  Cycle:     74 Energy:      -471.898755  Gnorm:      0.309580  CPU:    0.358
 Line minimisation2
 ALPHA BEFORE:    1.0526826652454606     
  ** Opt : line minimisation
left   ...       0.00000000    -471.89875521
centre ...       0.26317067    -471.94722342
right  ...       0.52634133    -471.97856493

left   ...       0.00000000    -471.89875521
centre ...       0.26317067    -471.94722342
right  ...       0.52634133    -471.97856493
new    ...       0.87635329    -471.99360347

__s__    ...       0.35001196

 ALPHA AFTER:   0.87635329447429844     
  Cycle:     75 Energy:      -471.993603  Gnorm:      0.418474  CPU:    0.362
 Perform trimming
 Line minimisation2
 ALPHA BEFORE:   0.87635329447429844     
  ** Opt : line minimisation
left   ...       0.00000000    -471.99360347
centre ...       0.21908832    -472.04521722
right  ...       0.43817665    -472.08629343

left   ...       0.00000000    -471.99360347
centre ...       0.21908832    -472.04521722
right  ...       0.43817665    -472.08629343
new    ...       1.18265811    -472.11179229

__s__    ...       0.74448146

left   ...       0.21908832    -472.04521722
centre ...       0.43817665    -472.08629343
right  ...       1.18265811    -472.11179229
new    ...       0.91810300    -472.12888580

__s__    ...      -0.26455511

 ALPHA AFTER:   0.91810299516229465     
  Cycle:     76 Energy:      -472.128886  Gnorm:      0.482919  CPU:    0.368
 Line minimisation2
 ALPHA BEFORE:   0.91810299516229465     
  ** Opt : line minimisation
left   ...       0.00000000    -472.12888580
centre ...       0.22952575    -472.22174532
right  ...       0.45905150    -472.25140515

left   ...       0.00000000    -472.12888580
centre ...       0.22952575    -472.22174532
right  ...       0.45905150    -472.25140515
new    ...       0.45200584    -472.25153991

__s__    ...      -0.00704566

 ALPHA AFTER:   0.45200584214885814     
  Cycle:     77 Energy:      -472.251540  Gnorm:      0.305958  CPU:    0.372
 Line minimisation2
 ALPHA BEFORE:   0.45200584214885814     
  ** Opt : line minimisation
left   ...       0.00000000    -472.25153991
centre ...       0.11300146    -472.27168278
right  ...       0.22600292    -472.28558667

left   ...       0.00000000    -472.25153991
centre ...       0.11300146    -472.27168278
right  ...       0.22600292    -472.28558667
new    ...       0.42133193    -472.29458758

__s__    ...       0.19532901

left   ...       0.11300146    -472.27168278
centre ...       0.22600292    -472.28558667
right  ...       0.42133193    -472.29458758
new    ...       0.41597457    -472.29459678

__s__    ...      -0.00535737

 ALPHA AFTER:   0.41597456581325615     
  Cycle:     78 Energy:      -472.294597  Gnorm:      0.243613  CPU:    0.378
 Line minimisation2
 ALPHA BEFORE:   0.41597456581325615     
  ** Opt : line minimisation
left   ...       0.00000000    -472.29459678
centre ...       0.10399364    -472.30758804
right  ...       0.20798728    -472.31869049

left   ...       0.00000000    -472.29459678
centre ...       0.10399364    -472.30758804
right  ...       0.20798728    -472.31869049
new    ...       0.76726634    -472.34552267

__s__    ...       0.55927905

left   ...       0.10399364    -472.30758804
centre ...       0.20798728    -472.31869049
right  ...       0.76726634    -472.34552267
new    ...       0.75828869    -472.34554428

__s__    ...      -0.00897764

 ALPHA AFTER:   0.75828869255296072     
  Cycle:     79 Energy:      -472.345544  Gnorm:      0.226627  CPU:    0.384
 Line minimisation2
 ALPHA BEFORE:   0.75828869255296072     
  ** Opt : line minimisation
left   ...       0.00000000    -472.34554428
centre ...       0.18957217    -472.36156698
right  ...       0.37914435    -472.36519273

left   ...       0.00000000    -472.34554428
centre ...       0.18957217    -472.36156698
right  ...       0.37914435    -472.36519273
new    ...       0.33980259    -472.36543098

__s__    ...      -0.03934176

 ALPHA AFTER:   0.33980258984496869     
  Cycle:     80 Energy:      -472.365431  Gnorm:      0.174861  CPU:    0.388
 Line minimisation2
 ALPHA BEFORE:   0.33980258984496869     
  ** Opt : line minimisation
left   ...       0.00000000    -472.36543098
centre ...       0.08495065    -472.37097381
right  ...       0.16990129    -472.37571667

left   ...       0.00000000    -472.36543098
centre ...       0.08495065    -472.37097381
right  ...       0.16990129    -472.37571667
new    ...       0.63108361    -472.38759449

__s__    ...       0.46118232

left   ...       0.08495065    -472.37097381
centre ...       0.16990129    -472.37571667
right  ...       0.63108361    -472.38759449
new    ...       0.63433155    -472.38759588

__s__    ...       0.00324794

 ALPHA AFTER:   0.63433154723385843     
  Cycle:     81 Energy:      -472.387596  Gnorm:      0.167532  CPU:    0.394
 Line minimisation2
 ALPHA BEFORE:   0.63433154723385843     
  ** Opt : line minimisation
left   ...       0.00000000    -472.38759588
centre ...       0.15858289    -472.39681001
right  ...       0.31716577    -472.40442239

left   ...       0.00000000    -472.38759588
centre ...       0.15858289    -472.39681001
right  ...       0.31716577    -472.40442239
new    ...       0.99155143    -472.41950745

__s__    ...       0.67438565

left   ...       0.15858289    -472.39681001
centre ...       0.31716577    -472.40442239
right  ...       0.99155143    -472.41950745
new    ...       1.01778875    -472.41950449

__s__    ...       0.02623733

 ALPHA AFTER:   0.99155142662472173     
  Cycle:     82 Energy:      -472.419507  Gnorm:      0.183569  CPU:    0.399
 Line minimisation2
 ALPHA BEFORE:   0.99155142662472173     
  ** Opt : line minimisation
left   ...       0.00000000    -472.41950745
centre ...       0.24788786    -472.43412312
right  ...       0.49577571    -472.43960561

left   ...       0.00000000    -472.41950745
centre ...       0.24788786    -472.43412312
right  ...       0.49577571    -472.43960561
new    ...       0.52063476    -472.43961603

__s__    ...       0.02485904

 ALPHA AFTER:   0.52063475512860491     
  Cycle:     83 Energy:      -472.439616  Gnorm:      0.144535  CPU:    0.404
 Line minimisation2
 ALPHA BEFORE:   0.52063475512860491     
  ** Opt : line minimisation
left   ...       0.00000000    -472.43961603
centre ...       0.13015869    -472.44481285
right  ...       0.26031738    -472.44829047

left   ...       0.00000000    -472.43961603
centre ...       0.13015869    -472.44481285
right  ...       0.26031738    -472.44829047
new    ...       0.45852444    -472.45027965

__s__    ...       0.19820706

 ALPHA AFTER:   0.45852443554052230     
  Cycle:     84 Energy:      -472.450280  Gnorm:      0.096145  CPU:    0.408
 Line minimisation2
 ALPHA BEFORE:   0.45852443554052230     
  ** Opt : line minimisation
left   ...       0.00000000    -472.45027965
centre ...       0.11463111    -472.45251678
right  ...       0.22926222    -472.45452186

left   ...       0.00000000    -472.45027965
centre ...       0.11463111    -472.45251678
right  ...       0.22926222    -472.45452186
new    ...       1.16242582    -472.46144679

__s__    ...       0.93316360

left   ...       0.11463111    -472.45251678
centre ...       0.22926222    -472.45452186
right  ...       1.16242582    -472.46144679
new    ...       1.08189517    -472.46150789

__s__    ...      -0.08053065

 ALPHA AFTER:    1.0818951726741215     
  Cycle:     85 Energy:      -472.461508  Gnorm:      0.082640  CPU:    0.414
 Line minimisation2
 ALPHA BEFORE:    1.0818951726741215     
  ** Opt : line minimisation
left   ...       0.00000000    -472.46150789
centre ...       0.27047379    -472.46487427
right  ...       0.54094759    -472.46670691

left   ...       0.00000000    -472.46150789
centre ...       0.27047379    -472.46487427
right  ...       0.54094759    -472.46670691
new    ...       0.72889254    -472.46684508

__s__    ...       0.18794495

 ALPHA AFTER:   0.72889253953285860     
  Cycle:     86 Energy:      -472.466845  Gnorm:      0.107208  CPU:    0.418
 Perform trimming
 Line minimisation2
 ALPHA BEFORE:   0.72889253953285860     
  ** Opt : line minimisation
left   ...       0.00000000    -472.46684508
centre ...       0.18222313    -472.46971897
right  ...       0.36444627    -472.47155181

left   ...       0.00000000    -472.46684508
centre ...       0.18222313    -472.46971897
right  ...       0.36444627    -472.47155181
new    ...       0.59415094    -472.47254990

__s__    ...       0.22970467

 ALPHA AFTER:   0.59415093806228425     
  Cycle:     87 Energy:      -472.472550  Gnorm:      0.077763  CPU:    0.423
 Line minimisation2
 ALPHA BEFORE:   0.59415093806228425     
  ** Opt : line minimisation
left   ...       0.00000000    -472.47254990
centre ...       0.14853773    -472.47432346
right  ...       0.29707547    -472.47559440

left   ...       0.00000000    -472.47254990
centre ...       0.14853773    -472.47432346
right  ...       0.29707547    -472.47559440
new    ...       0.59841064    -472.47645670

__s__    ...       0.30133517

left   ...       0.14853773    -472.47432346
centre ...       0.29707547    -472.47559440
right  ...       0.59841064    -472.47645670
new    ...       0.56077387    -472.47643983

__s__    ...      -0.03763678

 ALPHA AFTER:   0.59841064015352530     
  Cycle:     88 Energy:      -472.476457  Gnorm:      0.063017  CPU:    0.428
 Line minimisation2
 ALPHA BEFORE:   0.59841064015352530     
  ** Opt : line minimisation
left   ...       0.00000000    -472.47645670
centre ...       0.14960266    -472.47747412
right  ...       0.29920532    -472.47837085

left   ...       0.00000000    -472.47645670
centre ...       0.14960266    -472.47747412
right  ...       0.29920532    -472.47837085
new    ...       1.29920532    -472.47659498

__s__    ...       1.00000000

left   ...       0.14960266    -472.47747412
centre ...       0.29920532    -472.47837085
right  ...       1.29920532    -472.47659498
new    ...       0.66783098    -472.47931803

__s__    ...      -0.63137434

left   ...       0.29920532    -472.47837085
centre ...       0.66783098    -472.47931803
right  ...       1.29920532    -472.47659498
new    ...       0.67019023    -472.47931831

__s__    ...       0.00235924

 ALPHA AFTER:   0.67019022595475330     
  Cycle:     89 Energy:      -472.479318  Gnorm:      0.071956  CPU:    0.435
 Line minimisation2
 ALPHA BEFORE:   0.67019022595475330     
  ** Opt : line minimisation
left   ...       0.00000000    -472.47931831
centre ...       0.16754756    -472.48072946
right  ...       0.33509511    -472.48099831

left   ...       0.00000000    -472.47931831
centre ...       0.16754756    -472.48072946
right  ...       0.33509511    -472.48099831
new    ...       0.29075485    -472.48103829

__s__    ...      -0.04434026

 ALPHA AFTER:   0.29075485234982401     
  Cycle:     90 Energy:      -472.481038  Gnorm:      0.041886  CPU:    0.439
 Line minimisation2
 ALPHA BEFORE:   0.29075485234982401     
  ** Opt : line minimisation
left   ...       0.00000000    -472.48103829
centre ...       0.07268871    -472.48131325
right  ...       0.14537743    -472.48156504

left   ...       0.00000000    -472.48103829
centre ...       0.07268871    -472.48131325
right  ...       0.14537743    -472.48156504
new    ...       0.89893601    -472.48280865

__s__    ...       0.75355858

 ALPHA AFTER:   0.89893600721882483     
  Cycle:     91 Energy:      -472.482809  Gnorm:      0.048464  CPU:    0.444
 Perform trimming
 Line minimisation2
 ALPHA BEFORE:   0.89893600721882483     
  ** Opt : line minimisation
left   ...       0.00000000    -472.48280865
centre ...       0.22473400    -472.48380647
right  ...       0.44946800    -472.48467354

left   ...       0.00000000    -472.48280865
centre ...       0.22473400    -472.48380647
right  ...       0.44946800    -472.48467354
new    ...       1.44946800    -472.48694671

__s__    ...       1.00000000

left   ...       0.22473400    -472.48380647
centre ...       0.44946800    -472.48467354
right  ...       1.44946800    -472.48694671
new    ...       1.82769579    -472.48695716

__s__    ...       0.37822778

 ALPHA AFTER:    1.8276957876413813     
  Cycle:     92 Energy:      -472.486957  Gnorm:      0.069229  CPU:    0.448
 Perform trimming
 Line minimisation2
 ALPHA BEFORE:    1.8276957876413813     
  ** Opt : line minimisation
left   ...       0.00000000    -472.48695716
centre ...       0.45692395    -472.48927782
right  ...       0.91384789    -472.49011816

left   ...       0.00000000    -472.48695716
centre ...       0.45692395    -472.48927782
right  ...       0.91384789    -472.49011816
new    ...       0.94477506    -472.49013067

__s__    ...       0.03092717

 ALPHA AFTER:   0.94477506430986025     
  Cycle:     93 Energy:      -472.490131  Gnorm:      0.072077  CPU:    0.452
 Line minimisation2
 ALPHA BEFORE:   0.94477506430986025     
  ** Opt : line minimisation
left   ...       0.00000000    -472.49013067
centre ...       0.23619377    -472.49221615
right  ...       0.47238753    -472.49264962

left   ...       0.00000000    -472.49013067
centre ...       0.23619377    -472.49221615
right  ...       0.47238753    -472.49264962
new    ...       0.41626495    -472.49268990

__s__    ...      -0.05612259

 ALPHA AFTER:   0.41626494591729518     
  Cycle:     94 Energy:      -472.492690  Gnorm:      0.057270  CPU:    0.455
 Line minimisation2
 ALPHA BEFORE:   0.41626494591729518     
  ** Opt : line minimisation
left   ...       0.00000000    -472.49268990
centre ...       0.10406624    -472.49344555
right  ...       0.20813247    -472.49412451

left   ...       0.00000000    -472.49268990
centre ...       0.10406624    -472.49344555
right  ...       0.20813247    -472.49412451
new    ...       1.07737472    -472.49682238

__s__    ...       0.86924225

left   ...       0.10406624    -472.49344555
centre ...       0.20813247    -472.49412451
right  ...       1.07737472    -472.49682238
new    ...       1.08432432    -472.49682227

__s__    ...       0.00694960

 ALPHA AFTER:    1.0773747226372352     
  Cycle:     95 Energy:      -472.496822  Gnorm:      0.061353  CPU:    0.460
 Line minimisation2
 ALPHA BEFORE:    1.0773747226372352     
  ** Opt : line minimisation
left   ...       0.00000000    -472.49682238
centre ...       0.26934368    -472.49886743
right  ...       0.53868736    -472.50031803

left   ...       0.00000000    -472.49682238
centre ...       0.26934368    -472.49886743
right  ...       0.53868736    -472.50031803
new    ...       1.06129520    -472.50144584

__s__    ...       0.52260783

left   ...       0.26934368    -472.49886743
centre ...       0.53868736    -472.50031803
right  ...       1.06129520    -472.50144584
new    ...       1.06474052    -472.50144748

__s__    ...       0.00344532

 ALPHA AFTER:    1.0647405184893306     
  Cycle:     96 Energy:      -472.501447  Gnorm:      0.069349  CPU:    0.464
 Line minimisation2
 ALPHA BEFORE:    1.0647405184893306     
  ** Opt : line minimisation
left   ...       0.00000000    -472.50144748
centre ...       0.26618513    -472.50381016
right  ...       0.53237026    -472.50475224

left   ...       0.00000000    -472.50144748
centre ...       0.26618513    -472.50381016
right  ...       0.53237026    -472.50475224
new    ...       0.57579981    -472.50476540

__s__    ...       0.04342955

 ALPHA AFTER:   0.57579980728151570     
  Cycle:     97 Energy:      -472.504765  Gnorm:      0.079161  CPU:    0.467
 Line minimisation2
 ALPHA BEFORE:   0.57579980728151570     
  ** Opt : line minimisation
left   ...       0.00000000    -472.50476540
centre ...       0.14394995    -472.50677229
right  ...       0.28789990    -472.50819726

left   ...       0.00000000    -472.50476540
centre ...       0.14394995    -472.50677229
right  ...       0.28789990    -472.50819726
new    ...       0.56842911    -472.50980355

__s__    ...       0.28052920

left   ...       0.14394995    -472.50677229
centre ...       0.28789990    -472.50819726
right  ...       0.56842911    -472.50980355
new    ...       0.71937032    -472.51160242

__s__    ...       0.15094121

left   ...       0.28789990    -472.50819726
centre ...       0.56842911    -472.50980355
right  ...       0.71937032    -472.51160242
new    ...       1.02125275    -472.51087858

__s__    ...       0.30188243

 ALPHA AFTER:   0.71937031953883168     
  Cycle:     98 Energy:      -472.511602  Gnorm:      0.075940  CPU:    0.472
 Line minimisation2
 ALPHA BEFORE:   0.71937031953883168     
  ** Opt : line minimisation
left   ...       0.00000000    -472.51160242
centre ...       0.17984258    -472.51378535
right  ...       0.35968516    -472.51503795

left   ...       0.00000000    -472.51160242
centre ...       0.17984258    -472.51378535
right  ...       0.35968516    -472.51503795
new    ...       0.51190563    -472.51550509

__s__    ...       0.15222047

 ALPHA AFTER:   0.51190562706124387     
  Cycle:     99 Energy:      -472.515505  Gnorm:      0.071905  CPU:    0.476
 Line minimisation2
 ALPHA BEFORE:   0.51190562706124387     
  ** Opt : line minimisation
left   ...       0.00000000    -472.51550509
centre ...       0.12797641    -472.51670364
right  ...       0.25595281    -472.51725708

left   ...       0.00000000    -472.51550509
centre ...       0.12797641    -472.51670364
right  ...       0.25595281    -472.51725708
new    ...       0.30175794    -472.51747436

__s__    ...       0.04580513

 ALPHA AFTER:   0.30175794124302985     
  Cycle:    100 Energy:      -472.517474  Gnorm:      0.048007  CPU:    0.479
 Line minimisation2
 ALPHA BEFORE:   0.30175794124302985     
  ** Opt : line minimisation
left   ...       0.00000000    -472.51747436
centre ...       0.07543949    -472.51785469
right  ...       0.15087897    -472.51819391

left   ...       0.00000000    -472.51747436
centre ...       0.07543949    -472.51785469
right  ...       0.15087897    -472.51819391
new    ...       0.73570750    -472.51942722

__s__    ...       0.58482853

 ALPHA AFTER:   0.73570750437127286     
  Cycle:    101 Energy:      -472.519427  Gnorm:      0.030675  CPU:    0.483
 Line minimisation2
 ALPHA BEFORE:   0.73570750437127286     
  ** Opt : line minimisation
left   ...       0.00000000    -472.51942722
centre ...       0.18392688    -472.51975316
right  ...       0.36785375    -472.51994111

left   ...       0.00000000    -472.51942722
centre ...       0.18392688    -472.51975316
right  ...       0.36785375    -472.51994111
new    ...       0.52637755    -472.51999245

__s__    ...       0.15852379

 ALPHA AFTER:   0.52637754675348114     
  Cycle:    102 Energy:      -472.519992  Gnorm:      0.032447  CPU:    0.486
 Line minimisation2
 ALPHA BEFORE:   0.52637754675348114     
  ** Opt : line minimisation
left   ...       0.00000000    -472.51999245
centre ...       0.13159439    -472.52027399
right  ...       0.26318877    -472.52048138

left   ...       0.00000000    -472.51999245
centre ...       0.13159439    -472.52027399
right  ...       0.26318877    -472.52048138
new    ...       0.56544588    -472.52067680

__s__    ...       0.30225711

 ALPHA AFTER:   0.56544588303404819     
  Cycle:    103 Energy:      -472.520677  Gnorm:      0.027936  CPU:    0.490
 Line minimisation2
 ALPHA BEFORE:   0.56544588303404819     
  ** Opt : line minimisation
left   ...       0.00000000    -472.52067680
centre ...       0.14136147    -472.52090919
right  ...       0.28272294    -472.52110093

left   ...       0.00000000    -472.52067680
centre ...       0.14136147    -472.52090919
right  ...       0.28272294    -472.52110093
new    ...       0.87892272    -472.52163709

__s__    ...       0.59619978

left   ...       0.14136147    -472.52090919
centre ...       0.28272294    -472.52110093
right  ...       0.87892272    -472.52163709
[...]
 Perform trimming
 Line minimisation2
 ALPHA BEFORE:    1.4937954828556907     
  ** Opt : line minimisation
left   ...       0.00000000    -472.52961718
centre ...       0.37344887    -472.52966702
right  ...       0.74689774    -472.52970084

left   ...       0.00000000    -472.52961718
centre ...       0.37344887    -472.52966702
right  ...       0.74689774    -472.52970084
new    ...       1.34917642    -472.52972166

__s__    ...       0.60227868

 ALPHA AFTER:    1.3491764216345905     
  Cycle:    136 Energy:      -472.529722  Gnorm:      0.015596  CPU:    0.618
 Perform trimming
 Line minimisation2
 ALPHA BEFORE:    1.3491764216345905     
  ** Opt : line minimisation
left   ...       0.00000000    -472.52972166
centre ...       0.33729411    -472.52981352
right  ...       0.67458821    -472.52987320

left   ...       0.00000000    -472.52972166
centre ...       0.33729411    -472.52981352
right  ...       0.67458821    -472.52987320
new    ...       1.13136734    -472.52990267

__s__    ...       0.45677913

 ALPHA AFTER:    1.1313673397800001     
  Cycle:    137 Energy:      -472.529903  Gnorm:      0.012291  CPU:    0.622
 Line minimisation2
 ALPHA BEFORE:    1.1313673397800001     
  ** Opt : line minimisation
left   ...       0.00000000    -472.52990267
centre ...       0.28284183    -472.52997911
right  ...       0.56568367    -472.53001211

left   ...       0.00000000    -472.52990267
centre ...       0.28284183    -472.52997911
right  ...       0.56568367    -472.53001211
new    ...       0.63919956    -472.53001358

__s__    ...       0.07351589

 ALPHA AFTER:   0.63919956172294778     
  Cycle:    138 Energy:      -472.530014  Gnorm:      0.009347  CPU:    0.625
 Line minimisation2
 ALPHA BEFORE:   0.63919956172294778     
  ** Opt : line minimisation
left   ...       0.00000000    -472.53001358
centre ...       0.15979989    -472.53004053
right  ...       0.31959978    -472.53005730

left   ...       0.00000000    -472.53001358
centre ...       0.15979989    -472.53004053
right  ...       0.31959978    -472.53005730
new    ...       0.50300646    -472.53006400

__s__    ...       0.18340668

 ALPHA AFTER:   0.50300646178945829     
  Cycle:    139 Energy:      -472.530064  Gnorm:      0.006454  CPU:    0.629
 Line minimisation2
 ALPHA BEFORE:   0.50300646178945829     
  ** Opt : line minimisation
left   ...       0.00000000    -472.53006400
centre ...       0.12575162    -472.53007382
right  ...       0.25150323    -472.53007925

left   ...       0.00000000    -472.53006400
centre ...       0.12575162    -472.53007382
right  ...       0.25150323    -472.53007925
new    ...       0.34398869    -472.53008044

__s__    ...       0.09248546

 ALPHA AFTER:   0.34398868659634252     
  Cycle:    140 Energy:      -472.530080  Gnorm:      0.003466  CPU:    0.633
 Line minimisation2
 ALPHA BEFORE:   0.34398868659634252     
  ** Opt : line minimisation
left   ...       0.00000000    -472.53008044
centre ...       0.08599717    -472.53008250
right  ...       0.17199434    -472.53008393

left   ...       0.00000000    -472.53008044
centre ...       0.08599717    -472.53008250
right  ...       0.17199434    -472.53008393
new    ...       0.32608223    -472.53008493

__s__    ...       0.15408788

 ALPHA AFTER:   0.32608222510647389     
  Cycle:    141 Energy:      -472.530085  Gnorm:      0.002353  CPU:    0.636
 Line minimisation2
 ALPHA BEFORE:   0.32608222510647389     
  ** Opt : line minimisation
left   ...       0.00000000    -472.53008493
centre ...       0.08152056    -472.53008592
right  ...       0.16304111    -472.53008682

left   ...       0.00000000    -472.53008493
centre ...       0.08152056    -472.53008592
right  ...       0.16304111    -472.53008682
new    ...       1.09319881    -472.53009179

__s__    ...       0.93015769

 ALPHA AFTER:    1.0931988071818879     
  Cycle:    142 Energy:      -472.530092  Gnorm:      0.002428  CPU:    0.640
 Line minimisation2
 ALPHA BEFORE:    1.0931988071818879     
  ** Opt : line minimisation
left   ...       0.00000000    -472.53009179
centre ...       0.27329970    -472.53009484
right  ...       0.54659940    -472.53009662

left   ...       0.00000000    -472.53009179
centre ...       0.27329970    -472.53009484
right  ...       0.54659940    -472.53009662
new    ...       0.79321567    -472.53009713

__s__    ...       0.24661627

 ALPHA AFTER:   0.79321567093929324     
  Cycle:    143 Energy:      -472.530097  Gnorm:      0.002242  CPU:    0.644
 Line minimisation2
 ALPHA BEFORE:   0.79321567093929324     
  ** Opt : line minimisation
left   ...       0.00000000    -472.53009713
centre ...       0.19830392    -472.53009907
right  ...       0.39660784    -472.53010034

left   ...       0.00000000    -472.53009713
centre ...       0.19830392    -472.53009907
right  ...       0.39660784    -472.53010034
new    ...       0.67000355    -472.53010098

__s__    ...       0.27339571

 ALPHA AFTER:   0.67000354815945451     
  Cycle:    144 Energy:      -472.530101  Gnorm:      0.002615  CPU:    0.647
 Perform trimming
 Line minimisation2
 ALPHA BEFORE:   0.67000354815945451     
  ** Opt : line minimisation
left   ...       0.00000000    -472.53010098
centre ...       0.16750089    -472.53010331
right  ...       0.33500177    -472.53010507

left   ...       0.00000000    -472.53010098
centre ...       0.16750089    -472.53010331
right  ...       0.33500177    -472.53010507
new    ...       0.76323983    -472.53010694

__s__    ...       0.42823805

 ALPHA AFTER:   0.76323982540689028     
  Cycle:    145 Energy:      -472.530107  Gnorm:      0.002527  CPU:    0.651
 Line minimisation2
 ALPHA BEFORE:   0.76323982540689028     
  ** Opt : line minimisation
left   ...       0.00000000    -472.53010694
centre ...       0.19080996    -472.53010953
right  ...       0.38161991    -472.53011168

left   ...       0.00000000    -472.53010694
centre ...       0.19080996    -472.53010953
right  ...       0.38161991    -472.53011168
new    ...       1.24496197    -472.53011607

__s__    ...       0.86334206

 ALPHA AFTER:    1.2449619740097531     
  Cycle:    146 Energy:      -472.530116  Gnorm:      0.002379  CPU:    0.655
 Line minimisation2
 ALPHA BEFORE:    1.2449619740097531     
  ** Opt : line minimisation
left   ...       0.00000000    -472.53011607
centre ...       0.31124049    -472.53011902
right  ...       0.62248099    -472.53011980

left   ...       0.00000000    -472.53011607
centre ...       0.31124049    -472.53011902
right  ...       0.62248099    -472.53011980
new    ...       0.58048930    -472.53011982

__s__    ...      -0.04199169

 ALPHA AFTER:   0.58048929730619381     
  Cycle:    147 Energy:      -472.530120  Gnorm:      0.002467  CPU:    0.658
 Line minimisation2
 ALPHA BEFORE:   0.58048929730619381     
  ** Opt : line minimisation
left   ...       0.00000000    -472.53011982
centre ...       0.14512232    -472.53012162
right  ...       0.29024465    -472.53012298

left   ...       0.00000000    -472.53011982
centre ...       0.14512232    -472.53012162
right  ...       0.29024465    -472.53012298
new    ...       0.67247219    -472.53012449

__s__    ...       0.38222754

 ALPHA AFTER:   0.67247219090340260     
  Cycle:    148 Energy:      -472.530124  Gnorm:      0.003389  CPU:    0.662
 Perform trimming
 Line minimisation2
 ALPHA BEFORE:   0.67247219090340260     
  ** Opt : line minimisation
left   ...       0.00000000    -472.53012449
centre ...       0.16811805    -472.53012778
right  ...       0.33623610    -472.53013081

left   ...       0.00000000    -472.53012449
centre ...       0.16811805    -472.53012778
right  ...       0.33623610    -472.53013081
new    ...       1.33623610    -472.53014374

__s__    ...       1.00000000

left   ...       0.16811805    -472.53012778
centre ...       0.33623610    -472.53013081
right  ...       1.33623610    -472.53014374
new    ...       2.30399648    -472.53014786

__s__    ...       0.96776038

 ALPHA AFTER:    2.3039964778010149     
  Cycle:    149 Energy:      -472.530148  Gnorm:      0.002798  CPU:    0.666
 Line minimisation2
 ALPHA BEFORE:    2.3039964778010149     
  ** Opt : line minimisation
left   ...       0.00000000    -472.53014786
centre ...       0.57599912    -472.53015418
right  ...       1.15199824    -472.53015271

left   ...       0.00000000    -472.53014786
centre ...       0.57599912    -472.53015418
right  ...       1.15199824    -472.53015271
new    ...       0.75530697    -472.53015456

__s__    ...      -0.39669127

 ALPHA AFTER:   0.75530697352653864     
  Cycle:    150 Energy:      -472.530155  Gnorm:      0.002290  CPU:    0.670
 Line minimisation2
 ALPHA BEFORE:   0.75530697352653864     
  ** Opt : line minimisation
left   ...       0.00000000    -472.53015456
centre ...       0.18882674    -472.53015622
right  ...       0.37765349    -472.53015672

left   ...       0.00000000    -472.53015456
centre ...       0.18882674    -472.53015622
right  ...       0.37765349    -472.53015672
new    ...       0.36351531    -472.53015672

__s__    ...      -0.01413818

 ALPHA AFTER:   0.36351530553892958     
  Cycle:    151 Energy:      -472.530157  Gnorm:      0.001823  CPU:    0.674
 Line minimisation2
 ALPHA BEFORE:   0.36351530553892958     
  ** Opt : line minimisation
left   ...       0.00000000    -472.53015672
centre ...       0.09087883    -472.53015736
right  ...       0.18175765    -472.53015790

left   ...       0.00000000    -472.53015672
centre ...       0.09087883    -472.53015736
right  ...       0.18175765    -472.53015790
new    ...       0.66253979    -472.53015921

__s__    ...       0.48078213

 ALPHA AFTER:   0.66253978577295614     
  Cycle:    152 Energy:      -472.530159  Gnorm:      0.001395  CPU:    0.677
 Line minimisation2
 ALPHA BEFORE:   0.66253978577295614     
  ** Opt : line minimisation
left   ...       0.00000000    -472.53015921
centre ...       0.16563495    -472.53015988
right  ...       0.33126989    -472.53016041

left   ...       0.00000000    -472.53015921
centre ...       0.16563495    -472.53015988
right  ...       0.33126989    -472.53016041
new    ...       0.87034171    -472.53016115

__s__    ...       0.53907181

 ALPHA AFTER:   0.87034170707718128     
  Cycle:    153 Energy:      -472.530161  Gnorm:      0.001331  CPU:    0.681
 Line minimisation2
 ALPHA BEFORE:   0.87034170707718128     
  ** Opt : line minimisation
left   ...       0.00000000    -472.53016115
centre ...       0.21758543    -472.53016181
right  ...       0.43517085    -472.53016203

left   ...       0.00000000    -472.53016115
centre ...       0.21758543    -472.53016181
right  ...       0.43517085    -472.53016203
new    ...       0.43571952    -472.53016203

__s__    ...       0.00054867

 ALPHA AFTER:   0.43571951861114694     
  Cycle:    154 Energy:      -472.530162  Gnorm:      0.000966  CPU:    0.684
 Line minimisation2
 ALPHA BEFORE:   0.43571951861114694     
  ** Opt : line minimisation
left   ...       0.00000000    -472.53016203
centre ...       0.10892988    -472.53016224
right  ...       0.21785976    -472.53016241

left   ...       0.00000000    -472.53016203
centre ...       0.10892988    -472.53016224
right  ...       0.21785976    -472.53016241
new    ...       0.55597048    -472.53016263

__s__    ...       0.33811072

 ALPHA AFTER:   0.55597047777386488     
  Cycle:    155 Energy:      -472.530163  Gnorm:      0.000728  CPU:    0.688
 Line minimisation2
 ALPHA BEFORE:   0.55597047777386488     
  ** Opt : line minimisation
left   ...       0.00000000    -472.53016263
centre ...       0.13899262    -472.53016278
right  ...       0.27798524    -472.53016293

left   ...       0.00000000    -472.53016263
centre ...       0.13899262    -472.53016278
right  ...       0.27798524    -472.53016293
new    ...       1.27798524    -472.53016342

__s__    ...       1.00000000

 ALPHA AFTER:    1.2779852388869324     
  Cycle:    156 Energy:      -472.530163  Gnorm:      0.000876  CPU:    0.692
 Perform trimming
 Line minimisation2
 ALPHA BEFORE:    1.2779852388869324     
  ** Opt : line minimisation
left   ...       0.00000000    -472.53016342
centre ...       0.31949631    -472.53016382
right  ...       0.63899262    -472.53016394

left   ...       0.00000000    -472.53016342
centre ...       0.31949631    -472.53016382
right  ...       0.63899262    -472.53016394
new    ...       0.60899082    -472.53016394

__s__    ...      -0.03000180

 ALPHA AFTER:   0.60899082316615083     
  Cycle:    157 Energy:      -472.530164  Gnorm:      0.000923  CPU:    0.695
 Line minimisation2
 ALPHA BEFORE:   0.60899082316615083     
  ** Opt : line minimisation
left   ...       0.00000000    -472.53016394
centre ...       0.15224771    -472.53016419
right  ...       0.30449541    -472.53016435

left   ...       0.00000000    -472.53016394
centre ...       0.15224771    -472.53016419
right  ...       0.30449541    -472.53016435
new    ...       0.47825144    -472.53016441

__s__    ...       0.17375603

 ALPHA AFTER:   0.47825143696418765     
  Cycle:    158 Energy:      -472.530164  Gnorm:      0.000674  CPU:    0.699
 Line minimisation2
 ALPHA BEFORE:   0.47825143696418765     
  ** Opt : line minimisation
left   ...       0.00000000    -472.53016441
centre ...       0.11956286    -472.53016453
right  ...       0.23912572    -472.53016463

left   ...       0.00000000    -472.53016441
centre ...       0.11956286    -472.53016453
right  ...       0.23912572    -472.53016463
new    ...       1.18819366    -472.53016503

__s__    ...       0.94906794

 ALPHA AFTER:    1.1881936625748510     
  Cycle:    159 Energy:      -472.530165  Gnorm:      0.000791  CPU:    0.702
 Line minimisation2
 ALPHA BEFORE:    1.1881936625748510     
  ** Opt : line minimisation
left   ...       0.00000000    -472.53016503
centre ...       0.29704842    -472.53016532
right  ...       0.59409683    -472.53016537

left   ...       0.00000000    -472.53016503
centre ...       0.29704842    -472.53016532
right  ...       0.59409683    -472.53016537
new    ...       0.49624182    -472.53016538

__s__    ...      -0.09785501

 ALPHA AFTER:   0.49624182125072336     


  **** Optimisation achieved ****


  Final energy =    -472.53016538 eV
  Final Gnorm  =       0.00052352

  Components of energy : 

--------------------------------------------------------------------------------
  Interatomic potentials     =          69.66370618 eV    
  Monopole - monopole (real) =        -259.21172092 eV    
  Monopole - monopole (recip)=        -282.98215064 eV    
  Monopole - monopole (total)=        -542.19387156 eV    
--------------------------------------------------------------------------------
  Total lattice energy       =        -472.53016538 eV    
--------------------------------------------------------------------------------
  Total lattice energy       =          -45591.9377 kJ/(mole unit cells)
--------------------------------------------------------------------------------

  Final fractional coordinates of atoms :

--------------------------------------------------------------------------------
   No.  Atomic        x           y          z          Radius
        Label       (Frac)      (Frac)     (Frac)       (Angs) 
--------------------------------------------------------------------------------
     1  O     c     0.000000    0.500000    0.250000    0.000000
     2  O     c     0.401135    0.555588    0.229201    0.000000
     3  O     c     0.221025    0.592719    0.566872    0.000000
     4  O     c     0.340029    0.079144    0.509560    0.000000
     5  O     c     0.816702    0.498607    0.722332    0.000000
     6  O     c     0.119016    0.986389    0.192694    0.000000
     7  O     c     0.938922    0.023449    0.530359    0.000000
     8  O     c     0.523332    0.080408    0.037187    0.000000
     9  O     c     0.170014    0.289559    0.879786    0.000000
    10  Sr    c     0.670056    0.289477    0.379754    0.000000
    11  Sr    c     0.595486    0.909744    0.710466    0.000000
    12  Sr    c     0.744576    0.669243    0.049048    0.000000
    13  Ti    c     0.096635    0.324630    0.655322    0.000000
    14  Ti    c     0.243420    0.254439    0.104226    0.000000
    15  Ti    c     0.170024    0.789535    0.379776    0.000000
--------------------------------------------------------------------------------

  Final Cartesian lattice vectors (Angstroms) :

        5.911644    0.064035    0.166371
        0.064035    5.207375   -0.517793
        0.332742   -1.035587    7.549586


  Final cell parameters and derivatives :

--------------------------------------------------------------------------------
       a            5.914331 Angstrom     dE/de1(xx)     0.001109 eV/strain
       b            5.233447 Angstrom     dE/de2(yy)    -0.001974 eV/strain
       c            7.627543 Angstrom     dE/de3(zz)     0.002094 eV/strain
       alpha      103.443554 Degrees      dE/de4(yz)     0.004485 eV/strain
       beta        85.987354 Degrees      dE/de5(xz)     0.002689 eV/strain
       gamma       88.841389 Degrees      dE/de6(xy)     0.005052 eV/strain
--------------------------------------------------------------------------------

  Primitive cell volume =           228.896328 Angs**3

  Density of cell =      3.993691 g/cm**3

  Non-primitive cell volume =           228.896328 Angs**3


  Final internal derivatives :

--------------------------------------------------------------------------------
   No.  Atomic          a             b             c           Radius
        Label          (eV)          (eV)          (eV)        (eV/Angs)
--------------------------------------------------------------------------------
      1 O     c       0.000000      0.000000      0.000000      0.000000
      2 O     c       0.000383     -0.001725      0.001344      0.000000
      3 O     c       0.004396     -0.000680      0.000549      0.000000
      4 O     c       0.001573     -0.002995      0.005658      0.000000
      5 O     c      -0.000288     -0.006564     -0.003185      0.000000
      6 O     c      -0.002549      0.000348     -0.004061      0.000000
      7 O     c       0.004461     -0.005947      0.006612      0.000000
      8 O     c      -0.002754     -0.000984     -0.004127      0.000000
      9 O     c       0.000716      0.001644      0.002533      0.000000
     10 Sr    c       0.005776     -0.004519     -0.000316      0.000000
     11 Sr    c       0.004069     -0.001269      0.000582      0.000000
     12 Sr    c       0.003752     -0.003115      0.001954      0.000000
     13 Ti    c      -0.003100     -0.004241     -0.002814      0.000000
     14 Ti    c      -0.004082     -0.003286      0.005257      0.000000
     15 Ti    c      -0.000458     -0.002459     -0.009652      0.000000
--------------------------------------------------------------------------------
  Maximum abs         0.005776      0.006564      0.009652      0.000000
--------------------------------------------------------------------------------


  Time to end of optimisation =       0.7062 seconds

 Exiting ------OPTIONS------

  Peak dynamic memory used =       0.55 MB 


  Timing analysis for GULP :

--------------------------------------------------------------------------------
  Task / Subroutine                                          Time (Seconds)
--------------------------------------------------------------------------------
  Calculation of reciprocal space energy and derivatives          0.0844
  Calculation of real space energy and derivatives                0.6060
  Global summation overhead                                       0.0004
--------------------------------------------------------------------------------
  Total CPU time                                                  0.7062
--------------------------------------------------------------------------------


  Job Finished at 11:58.49  4th February   2020                               

