********************************************************************************
*                       GENERAL UTILITY LATTICE PROGRAM                        *
*                                 Julian Gale                                  *
*                       Curtin Institute for Computation                       *
*                           Department of Chemistry                            *
*                    Curtin University, Western Australia                      *
********************************************************************************
* Version = 5.1.1 * Last modified =  25th August 2019                          *
********************************************************************************
*  optimise     - perform optimisation run                                     *
*  conp         - constant pressure calculation                                *
*  nosymmetry   - turn off symmetry after initial structure generation         *
*  full         - generate full unit cell when symmetry is removed             *
*  conjugate    - use conjugate gradients minimiser                            *
********************************************************************************
* ASE calculation                                                              *
********************************************************************************


  Job Started  at 12:08.15  4th February   2020                               

  Number of CPUs =     1


  Total number of configurations input =      1

********************************************************************************
*  Input for Configuration =   1                                               *
********************************************************************************

  Formula = Sr3Ti3O9                                                    

  Number of irreducible atoms/shells =      15


  Total number atoms/shells =      15

  Dimensionality = 3               :  Bulk   



  Cartesian lattice vectors (Angstroms) :

       12.000000    0.000000    0.000000
        0.000000    4.000000    0.000000
        0.000000    0.000000    4.000000

  Cell parameters (Angstroms/Degrees):

  a =      12.0000    alpha =  90.0000
  b =       4.0000    beta  =  90.0000
  c =       4.0000    gamma =  90.0000

  Initial cell volume =         192.000000 Angs**3

  Temperature of configuration =  0.000     K 

  Pressure of configuration =         0.000 GPa 

  Fractional coordinates of asymmetric unit :

--------------------------------------------------------------------------------
   No.  Atomic       x           y          z         Charge      Occupancy
        Label      (Frac)      (Frac)     (Frac)        (e)         (Frac)  
--------------------------------------------------------------------------------
      1 Sr    c    0.999850    0.000360    0.999990     2.00000    1.000000    
      2 Ti    c    0.166710 *  0.500030 *  0.500050 *   4.00000    1.000000    
      3 O     c    0.000050 *  0.500680 *  0.500190 *  -2.00000    1.000000    
      4 O     c    0.166570 *  0.999870 *  0.499700 *  -2.00000    1.000000    
      5 O     c    0.166600 *  0.499850 *  0.999910 *  -2.00000    1.000000    
      6 Sr    c    0.333370 *  0.000290 *  0.999980 *   2.00000    1.000000    
      7 Ti    c    0.500060 *  0.500190 *  0.500580 *   4.00000    1.000000    
      8 O     c    0.333440 *  0.499320 *  0.500160 *  -2.00000    1.000000    
      9 O     c    0.500070 *  0.000580 *  0.500650 *  -2.00000    1.000000    
     10 O     c    0.500040 *  0.499980 *  0.999500 *  -2.00000    1.000000    
     11 Sr    c    0.666980 *  0.000650 *  0.999700 *   2.00000    1.000000    
     12 Ti    c    0.833180 *  0.500010 *  0.500730 *   4.00000    1.000000    
     13 O     c    0.666770 *  0.499940 *  0.500100 *  -2.00000    1.000000    
     14 O     c    0.833490 *  0.000170 *  0.499850 *  -2.00000    1.000000    
     15 O     c    0.833340 *  0.499170 *  0.000420 *  -2.00000    1.000000    
--------------------------------------------------------------------------------



********************************************************************************
*  General input information                                                   *
********************************************************************************

  Species output for all configurations : 

--------------------------------------------------------------------------------
  Species    Type    Atomic    Atomic    Charge       Radii (Angs)     Library
                     Number     Mass       (e)     Cova   Ionic  VDW   Symbol
--------------------------------------------------------------------------------
    Sr       Core       38      87.62   2.000000   1.120  0.000  1.670          
    Ti       Core       22      47.88   4.000000   1.470  0.000  2.190          
    O        Core        8      16.00  -2.000000   0.730  0.000  1.360          
--------------------------------------------------------------------------------


  Lattice summation method               =    Ewald          (3-D)
                                         =    Parry          (2-D)
                                         =    Saunders et al (1-D)
  Accuracy factor for lattice sums       =   12.000


  Time limit = Infinity

  Maximum range for interatomic potentials =    100000.000000 Angstroms

  General interatomic potentials :

--------------------------------------------------------------------------------
Atom  Types   Potential      Parameter       Value         Units   Cutoffs(Ang)
  1     2                                                            Min /  Max 
--------------------------------------------------------------------------------
O    c Sr   c Buckingham    Buckingham A     1952.3900    eV        0.000 10.000
                            Buckingham rho  0.33685000    Ang       
                            Buckingham C     19.220000    eV*Ang^6  
--------------------------------------------------------------------------------
O    c Ti   c Buckingham    Buckingham A     4590.7279    eV        0.000 10.000
                            Buckingham rho  0.26100000    Ang       
                            Buckingham C     0.0000000    eV*Ang^6  
--------------------------------------------------------------------------------
O    c O    c Buckingham    Buckingham A     1388.7700    eV        0.000 10.000
                            Buckingham rho  0.36262000    Ang       
                            Buckingham C     175.00000    eV*Ang^6  
--------------------------------------------------------------------------------
 Calling ------OPTIONS------

********************************************************************************
*  Output for configuration   1                                                *
********************************************************************************


  Components of energy : 

--------------------------------------------------------------------------------
  Interatomic potentials     =          59.32167851 eV    
  Monopole - monopole (real) =        -234.57426617 eV    
  Monopole - monopole (recip)=        -300.12329799 eV    
  Monopole - monopole (total)=        -534.69756416 eV    
--------------------------------------------------------------------------------
  Total lattice energy       =        -475.37588565 eV    
--------------------------------------------------------------------------------
  Total lattice energy       =          -45866.5062 kJ/(mole unit cells)
--------------------------------------------------------------------------------


  Number of variables =       48

  Maximum number of calculations  =          1000
  Maximum Hessian update interval =            10
  Maximum step size               =   1.000000000
  Maximum parameter tolerance     =   0.000010000
  Maximum function  tolerance     =   0.000010000
  Maximum gradient  tolerance     =   0.001000000
  Maximum gradient  component     =   0.010000000

  Cell parameters to be optimised using strains

  Conjugate gradient optimiser to be used

  Lower half triangular hessian to be used

  Minimiser to switch to BFGS with exact hessian
  When gradient norm is less than     0.100000

  Start of bulk optimisation :

  Cycle:      0 Energy:      -475.375886  Gnorm:      0.419631  CPU:    0.011
 Line minimisation2
 ALPHA BEFORE:    1.0000000000000000     
  ** Opt : line minimisation
left   ...       0.00000000    -475.37588565
centre ...       0.25000000    -475.45937155
right  ...       0.50000000    -475.50636435

left   ...       0.00000000    -475.37588565
centre ...       0.25000000    -475.45937155
right  ...       0.50000000    -475.50636435
new    ...       0.69692938    -475.51707715

__s__    ...       0.19692938

 ALPHA AFTER:   0.69692938194025855     
  Cycle:      1 Energy:      -475.517077  Gnorm:      0.732287  CPU:    0.021
 Perform trimming
 Line minimisation2
 ALPHA BEFORE:   0.69692938194025855     
  ** Opt : line minimisation
left   ...       0.00000000    -475.51707715
centre ...       0.17423235    -475.56576597
right  ...       0.34846469    -475.52905485

left   ...       0.00000000    -475.51707715
centre ...       0.17423235    -475.56576597
right  ...       0.34846469    -475.52905485
new    ...       0.18645076    -475.56599689

__s__    ...      -0.16201393

left   ...       0.17423235    -475.56576597
centre ...       0.18645076    -475.56599689
right  ...       0.34846469    -475.52905485
new    ...       0.18700951    -475.56599740

__s__    ...       0.00055875

 ALPHA AFTER:   0.18700951380719669     
  Cycle:      2 Energy:      -475.565997  Gnorm:      0.076074  CPU:    0.028
  ** Hessian calculated **
 Line minimisation2
 ALPHA BEFORE:    1.0000000000000000     
  ** Opt : line minimisation
left   ...       0.00000000    -475.56599740
centre ...       0.25000000    -475.56657489
right  ...       0.50000000    -475.56698744

left   ...       0.00000000    -475.56599740
centre ...       0.25000000    -475.56657489
right  ...       0.50000000    -475.56698744
new    ...       1.00030619    -475.56731818

__s__    ...       0.50030619

 ALPHA AFTER:    1.0003061949761565     
  Cycle:      3 Energy:      -475.567318  Gnorm:      0.000530  CPU:    0.035
 Line minimisation2
 ALPHA BEFORE:    101.08063535572835     
  ** Opt : line minimisation
left   ...       0.00000000    -475.56731818
centre ...       1.00000000    -475.56731825
right  ...       2.00000000    -475.56731818

left   ...       0.00000000    -475.56731818
centre ...       1.00000000    -475.56731825
right  ...       2.00000000    -475.56731818
new    ...       1.00176828    -475.56731825

__s__    ...      -0.99823172

 ALPHA AFTER:    1.0017682811484780     


  **** Optimisation achieved ****


  Final energy =    -475.56731825 eV
  Final Gnorm  =       0.00001077

  Components of energy : 

--------------------------------------------------------------------------------
  Interatomic potentials     =          65.00989680 eV    
  Monopole - monopole (real) =        -237.15356010 eV    
  Monopole - monopole (recip)=        -303.42365494 eV    
  Monopole - monopole (total)=        -540.57721504 eV    
--------------------------------------------------------------------------------
  Total lattice energy       =        -475.56731825 eV    
--------------------------------------------------------------------------------
  Total lattice energy       =          -45884.9765 kJ/(mole unit cells)
--------------------------------------------------------------------------------

  Final fractional coordinates of atoms :

--------------------------------------------------------------------------------
   No.  Atomic        x           y          z          Radius
        Label       (Frac)      (Frac)     (Frac)       (Angs) 
--------------------------------------------------------------------------------
     1  Sr    c     0.999850    0.000360    0.999990    0.000000
     2  Ti    c     0.166517    0.500360    0.499990    0.000000
     3  O     c     0.999850    0.500360    0.499990    0.000000
     4  O     c     0.166517    0.000360    0.499990    0.000000
     5  O     c     0.166517    0.500360    0.999990    0.000000
     6  Sr    c     0.333183    0.000360    0.999990    0.000000
     7  Ti    c     0.499850    0.500360    0.499990    0.000000
     8  O     c     0.333183    0.500360    0.499990    0.000000
     9  O     c     0.499850    0.000360    0.499990    0.000000
    10  O     c     0.499850    0.500360    0.999990    0.000000
    11  Sr    c     0.666517    0.000360    0.999990    0.000000
    12  Ti    c     0.833183    0.500360    0.499990    0.000000
    13  O     c     0.666517    0.500360    0.499990    0.000000
    14  O     c     0.833183    0.000360    0.499990    0.000000
    15  O     c     0.833183    0.500360    0.999990    0.000000
--------------------------------------------------------------------------------

  Final Cartesian lattice vectors (Angstroms) :

       11.869483   -0.000000   -0.000000
       -0.000000    3.956494   -0.000000
       -0.000000   -0.000000    3.956494


  Final cell parameters and derivatives :

--------------------------------------------------------------------------------
       a           11.869483 Angstrom     dE/de1(xx)     0.000040 eV/strain
       b            3.956494 Angstrom     dE/de2(yy)     0.000010 eV/strain
       c            3.956494 Angstrom     dE/de3(zz)     0.000009 eV/strain
       alpha       90.000000 Degrees      dE/de4(yz)    -0.000003 eV/strain
       beta        90.000000 Degrees      dE/de5(xz)    -0.000001 eV/strain
       gamma       90.000000 Degrees      dE/de6(xy)    -0.000002 eV/strain
--------------------------------------------------------------------------------

  Primitive cell volume =           185.803050 Angs**3

  Density of cell =      4.919948 g/cm**3

  Non-primitive cell volume =           185.803050 Angs**3


  Final internal derivatives :

--------------------------------------------------------------------------------
   No.  Atomic          a             b             c           Radius
        Label          (eV)          (eV)          (eV)        (eV/Angs)
--------------------------------------------------------------------------------
      1 Sr    c       0.000000      0.000000      0.000000      0.000000
      2 Ti    c       0.000100     -0.000003     -0.000001      0.000000
      3 O     c      -0.000256      0.000001     -0.000000      0.000000
      4 O     c      -0.000039      0.000001      0.000002      0.000000
      5 O     c      -0.000045      0.000000     -0.000000      0.000000
      6 Sr    c      -0.000029     -0.000001     -0.000001      0.000000
      7 Ti    c       0.000261      0.000005     -0.000011      0.000000
      8 O     c      -0.000229     -0.000002      0.000003      0.000000
      9 O     c      -0.000016      0.000000     -0.000004      0.000000
     10 O     c      -0.000021     -0.000001      0.000014      0.000000
     11 Sr    c       0.000071     -0.000003      0.000003      0.000000
     12 Ti    c       0.000219     -0.000000     -0.000007      0.000000
     13 O     c      -0.000091      0.000002      0.000000      0.000000
     14 O     c       0.000036     -0.000008      0.000004      0.000000
     15 O     c       0.000034      0.000006     -0.000001      0.000000
--------------------------------------------------------------------------------
  Maximum abs         0.000261      0.000008      0.000014      0.000000
--------------------------------------------------------------------------------


  Time to end of optimisation =       0.0390 seconds

 Exiting ------OPTIONS------

  Peak dynamic memory used =       0.60 MB 


  Timing analysis for GULP :

--------------------------------------------------------------------------------
  Task / Subroutine                                          Time (Seconds)
--------------------------------------------------------------------------------
  Calculation of reciprocal space energy and derivatives          0.0041
  Calculation of real space energy and derivatives                0.0276
--------------------------------------------------------------------------------
  Total CPU time                                                  0.0391
--------------------------------------------------------------------------------


  Job Finished at 12:08.15  4th February   2020                               

