********************************************************************************
*                       GENERAL UTILITY LATTICE PROGRAM                        *
*                                 Julian Gale                                  *
*                       Curtin Institute for Computation                       *
*                           Department of Chemistry                            *
*                    Curtin University, Western Australia                      *
********************************************************************************
* Version = 5.1.1 * Last modified =  25th August 2019                          *
********************************************************************************
*  optimise     - perform optimisation run                                     *
*  conp         - constant pressure calculation                                *
*  nosymmetry   - turn off symmetry after initial structure generation         *
*  full         - generate full unit cell when symmetry is removed             *
*  conjugate    - use conjugate gradients minimiser                            *
********************************************************************************
* ASE calculation                                                              *
********************************************************************************


  Job Started  at 13:26.43 21st February   2020                               

  Number of CPUs =     1


  Total number of configurations input =      1

********************************************************************************
*  Input for Configuration =   1                                               *
********************************************************************************

  Formula = Sr3Ti3O9                                                    

  Number of irreducible atoms/shells =      15


  Total number atoms/shells =      15

  Dimensionality = 3               :  Bulk   



  Cartesian lattice vectors (Angstroms) :

       12.000000    0.000000    0.000000
        0.000000    4.000000    0.000000
        0.000000    0.000000    4.000000

  Cell parameters (Angstroms/Degrees):

  a =      12.0000    alpha =  90.0000
  b =       4.0000    beta  =  90.0000
  c =       4.0000    gamma =  90.0000

  Initial cell volume =         192.000000 Angs**3

  Temperature of configuration =  0.000     K 

  Pressure of configuration =         0.000 GPa 

  Fractional coordinates of asymmetric unit :

--------------------------------------------------------------------------------
   No.  Atomic       x           y          z         Charge      Occupancy
        Label      (Frac)      (Frac)     (Frac)        (e)         (Frac)  
--------------------------------------------------------------------------------
      1 Sr    c    0.999960    0.999870    0.000550     2.00000    1.000000    
      2 Ti    c    0.166670 *  0.500120 *  0.500000 *   4.00000    1.000000    
      3 O     c    0.999860 *  0.499900 *  0.500580 *  -2.00000    1.000000    
      4 O     c    0.166680 *  0.000170 *  0.499980 *  -2.00000    1.000000    
      5 O     c    0.166710 *  0.500200 *  0.999660 *  -2.00000    1.000000    
      6 Sr    c    0.333470 *  0.000350 *  0.000010 *   2.00000    1.000000    
      7 Ti    c    0.500270 *  0.499340 *  0.499380 *   4.00000    1.000000    
      8 O     c    0.333310 *  0.499790 *  0.499620 *  -2.00000    1.000000    
      9 O     c    0.499980 *  0.999440 *  0.500200 *  -2.00000    1.000000    
     10 O     c    0.500030 *  0.500400 *  0.000150 *  -2.00000    1.000000    
     11 Sr    c    0.666540 *  0.999940 *  0.999970 *   2.00000    1.000000    
     12 Ti    c    0.833350 *  0.499710 *  0.499670 *   4.00000    1.000000    
     13 O     c    0.666530 *  0.499700 *  0.500090 *  -2.00000    1.000000    
     14 O     c    0.833150 *  0.000100 *  0.500050 *  -2.00000    1.000000    
     15 O     c    0.833380 *  0.500160 *  0.000120 *  -2.00000    1.000000    
--------------------------------------------------------------------------------



********************************************************************************
*  General input information                                                   *
********************************************************************************

  Species output for all configurations : 

--------------------------------------------------------------------------------
  Species    Type    Atomic    Atomic    Charge       Radii (Angs)     Library
                     Number     Mass       (e)     Cova   Ionic  VDW   Symbol
--------------------------------------------------------------------------------
    Sr       Core       38      87.62   2.000000   1.120  0.000  1.670          
    Ti       Core       22      47.88   4.000000   1.470  0.000  2.190          
    O        Core        8      16.00  -2.000000   0.730  0.000  1.360          
--------------------------------------------------------------------------------


  Lattice summation method               =    Ewald          (3-D)
                                         =    Parry          (2-D)
                                         =    Saunders et al (1-D)
  Accuracy factor for lattice sums       =   12.000


  Time limit = Infinity

  Maximum range for interatomic potentials =    100000.000000 Angstroms

  General interatomic potentials :

--------------------------------------------------------------------------------
Atom  Types   Potential      Parameter       Value         Units   Cutoffs(Ang)
  1     2                                                            Min /  Max 
--------------------------------------------------------------------------------
O    c Sr   c Buckingham    Buckingham A     1952.3900    eV        0.000 10.000
                            Buckingham rho  0.33685000    Ang       
                            Buckingham C     19.220000    eV*Ang^6  
--------------------------------------------------------------------------------
O    c Ti   c Buckingham    Buckingham A     4590.7279    eV        0.000 10.000
                            Buckingham rho  0.26100000    Ang       
                            Buckingham C     0.0000000    eV*Ang^6  
--------------------------------------------------------------------------------
O    c O    c Buckingham    Buckingham A     1388.7700    eV        0.000 10.000
                            Buckingham rho  0.36262000    Ang       
                            Buckingham C     175.00000    eV*Ang^6  
--------------------------------------------------------------------------------
 Calling ------OPTIONS------

********************************************************************************
*  Output for configuration   1                                                *
********************************************************************************


  Components of energy : 

--------------------------------------------------------------------------------
  Interatomic potentials     =          59.32156790 eV    
  Monopole - monopole (real) =        -234.57439053 eV    
  Monopole - monopole (recip)=        -300.12335562 eV    
  Monopole - monopole (total)=        -534.69774615 eV    
--------------------------------------------------------------------------------
  Total lattice energy       =        -475.37617825 eV    
--------------------------------------------------------------------------------
  Total lattice energy       =          -45866.5344 kJ/(mole unit cells)
--------------------------------------------------------------------------------


  Number of variables =       48

  Maximum number of calculations  =          1000
  Maximum Hessian update interval =            10
  Maximum step size               =   1.000000000
  Maximum parameter tolerance     =   0.000010000
  Maximum function  tolerance     =   0.000010000
  Maximum gradient  tolerance     =   0.001000000
  Maximum gradient  component     =   0.010000000

  Cell parameters to be optimised using strains

  Conjugate gradient optimiser to be used

  Lower half triangular hessian to be used

  Minimiser to switch to BFGS with exact hessian
  When gradient norm is less than     0.100000

  Start of bulk optimisation :

  Cycle:      0 Energy:      -475.376178  Gnorm:      0.418174  CPU:    0.011
 ALPHA BEFORE:    1.0000000000000000     
 XC BEFORE:   0.16666999999995369     
  ** Opt : line minimisation
left   ...       0.00000000    -475.37617825
centre ...       0.25000000    -475.46049989
right  ...       0.50000000    -475.51142990

left   ...       0.00000000    -475.37617825
centre ...       0.25000000    -475.46049989
right  ...       0.50000000    -475.51142990
new    ...       0.75630828    -475.52804166

__s__    ...       0.25630828

 ALPHA AFTER:   0.75630828475232981     
 XC AFTER:   0.16734824287970815     
 SANITY CHECK:   0.75630828475231804     
 DIRECTION dim            1  value    8.9678097335212418E-004
 DIRECTION dim            2  value   -1.9631933566550639E-005
 DIRECTION dim            3  value    4.4632341123896046E-005
 DIRECTION dim            4  value    2.5669570421654693E-004
 DIRECTION dim            5  value    2.4528983753954359E-005
 DIRECTION dim            6  value   -2.1468565893177885E-004
 DIRECTION dim            7  value   -5.8860503624745433E-004
 DIRECTION dim            8  value   -5.3037826352994157E-005
 DIRECTION dim            9  value   -7.6573945907180356E-005
 DIRECTION dim           10  value   -6.1911043734131179E-004
 DIRECTION dim           11  value    4.9125870974388455E-006
 DIRECTION dim           12  value    1.8183151209948752E-004
 DIRECTION dim           13  value   -1.9238397328060031E-004
 DIRECTION dim           14  value   -8.1431901536455041E-005
 DIRECTION dim           15  value   -4.0425813582024830E-005
 DIRECTION dim           16  value   -2.3291929310889966E-003
 DIRECTION dim           17  value    3.4506190915601200E-004
 DIRECTION dim           18  value    3.2074368820717654E-004
 DIRECTION dim           19  value    3.5111605195874672E-004
 DIRECTION dim           20  value   -5.9522121275175805E-005
 DIRECTION dim           21  value    1.6725424907282682E-005
 DIRECTION dim           22  value    8.1439682223237084E-004
 DIRECTION dim           23  value    2.5958111369755999E-004
 DIRECTION dim           24  value   -1.2153902073060509E-004
 DIRECTION dim           25  value    7.4405416932482192E-004
 DIRECTION dim           26  value   -3.0949786669361612E-004
 DIRECTION dim           27  value   -7.7379787420884077E-005
 DIRECTION dim           28  value    1.9018527590412631E-004
 DIRECTION dim           29  value   -5.9458241613868966E-005
 DIRECTION dim           30  value   -5.4200359948143316E-005
 DIRECTION dim           31  value   -1.1465698567004157E-004
 DIRECTION dim           32  value    1.3489626146749890E-004
 DIRECTION dim           33  value    2.7325042727705586E-004
 DIRECTION dim           34  value    5.5295355395262511E-004
 DIRECTION dim           35  value   -7.2391254338170823E-005
 DIRECTION dim           36  value   -9.5031104046485666E-005
 DIRECTION dim           37  value    9.9583363098301926E-005
 DIRECTION dim           38  value   -6.2323892858654029E-005
 DIRECTION dim           39  value   -8.3598025995352973E-005
 DIRECTION dim           40  value   -3.2155726721774087E-004
 DIRECTION dim           41  value   -5.9527843308551674E-005
 DIRECTION dim           42  value    2.2448245876471387E-005
 DIRECTION dim           43  value   -1.1449913523411176E-002
 DIRECTION dim           44  value   -1.1452962036541604E-002
 DIRECTION dim           45  value   -1.1450831799189499E-002
 DIRECTION dim           46  value   -9.5193325056853174E-009
 DIRECTION dim           47  value    4.1722032401602439E-008
 DIRECTION dim           48  value    5.9186274454277460E-008
  Cycle:      1 Energy:      -475.528042  Gnorm:      0.671276  CPU:    0.019
 Perform trimming
 ALPHA BEFORE:   0.75630828475232981     
 XC BEFORE:   0.16734824287970815     
  ** Opt : line minimisation
left   ...       0.00000000    -475.52804166
centre ...       0.18907707    -475.56350110
right  ...       0.37815414    -475.47732340

left   ...       0.00000000    -475.52804166
centre ...       0.18907707    -475.56350110
right  ...       0.37815414    -475.47732340
new    ...       0.14965794    -475.56605188

__s__    ...      -0.22849621

left   ...       0.00000000    -475.52804166
centre ...       0.14965794    -475.56605188
right  ...       0.18907707    -475.56350110
new    ...       0.15017166    -475.56605253

__s__    ...       0.00051373

 ALPHA AFTER:   0.15017166294178641     
 XC AFTER:   0.16645020357875662     
 SANITY CHECK:   0.15017166294178569     
 DIRECTION dim            1  value   -5.9800849465165571E-003
 DIRECTION dim            2  value   -3.6053886627783286E-005
 DIRECTION dim            3  value    5.4179905842491719E-005
 DIRECTION dim            4  value    1.3249019478665195E-003
 DIRECTION dim            5  value    4.2053661401050321E-005
 DIRECTION dim            6  value   -3.3847321460366876E-004
 DIRECTION dim            7  value    2.9061495826722258E-003
 DIRECTION dim            8  value   -8.9184184574814205E-005
 DIRECTION dim            9  value   -1.0833606170951235E-004
 DIRECTION dim           10  value    2.8568889173547223E-003
 DIRECTION dim           11  value    5.1746402706531794E-006
 DIRECTION dim           12  value    2.8529131138598971E-004
 DIRECTION dim           13  value   -8.3548955316976723E-005
 DIRECTION dim           14  value   -1.3291469713032727E-004
 DIRECTION dim           15  value   -6.1312012786579357E-005
 DIRECTION dim           16  value    7.7996159517966287E-003
 DIRECTION dim           17  value    5.2495024037921083E-004
 DIRECTION dim           18  value    5.0372459707511167E-004
 DIRECTION dim           19  value   -5.2972638056732234E-004
 DIRECTION dim           20  value   -7.5230307677912983E-005
 DIRECTION dim           21  value    4.8334378593013915E-005
 DIRECTION dim           22  value   -3.7815984361745242E-003
 DIRECTION dim           23  value    3.9467539346839576E-004
 DIRECTION dim           24  value   -1.8523670747417392E-004
 DIRECTION dim           25  value   -3.8722929238308341E-003
 DIRECTION dim           26  value   -4.7509204738166910E-004
 DIRECTION dim           27  value   -1.4327697360457675E-004
 DIRECTION dim           28  value    1.0038777388629032E-003
 DIRECTION dim           29  value   -8.8895213916236458E-005
 DIRECTION dim           30  value   -7.8958065832762837E-005
 DIRECTION dim           31  value   -1.4917435524506378E-003
 DIRECTION dim           32  value    2.0978222651229871E-004
 DIRECTION dim           33  value    4.2143755132463372E-004
 DIRECTION dim           34  value   -8.6037975823093841E-004
 DIRECTION dim           35  value   -9.1379151620293503E-005
 DIRECTION dim           36  value   -1.3678055354692851E-004
 DIRECTION dim           37  value    1.0618773891401211E-003
 DIRECTION dim           38  value   -1.1141691959811316E-004
 DIRECTION dim           39  value   -1.1407838075341179E-004
 DIRECTION dim           40  value    6.0356783172330216E-004
 DIRECTION dim           41  value   -9.3214204525004726E-005
 DIRECTION dim           42  value    1.5446733597707182E-005
 DIRECTION dim           43  value   -1.5863023931165079E-002
 DIRECTION dim           44  value   -1.5866050426865057E-002
 DIRECTION dim           45  value   -1.5863114347165370E-002
 DIRECTION dim           46  value   -1.2187273272590619E-008
 DIRECTION dim           47  value   -2.5539919887132725E-007
 DIRECTION dim           48  value   -3.7523057160277036E-007
  Cycle:      2 Energy:      -475.566053  Gnorm:      0.073696  CPU:    0.026
  ** Hessian calculated **
 ALPHA BEFORE:    1.0000000000000000     
 XC BEFORE:   0.16645020357875662     
  ** Opt : line minimisation
left   ...       0.00000000    -475.56605253
centre ...       0.25000000    -475.56660549
right  ...       0.50000000    -475.56700061

left   ...       0.00000000    -475.56605253
centre ...       0.25000000    -475.56660549
right  ...       0.50000000    -475.56700061
new    ...       1.00076261    -475.56731805

__s__    ...       0.50076261

 ALPHA AFTER:    1.0007626092806650     
 XC AFTER:   0.16662566502143852     
 SANITY CHECK:    1.0007626092805633     
 DIRECTION dim            1  value    1.7532773612319907E-004
 DIRECTION dim            2  value   -2.2885144241218720E-004
 DIRECTION dim            3  value    5.0740720467917408E-004
 DIRECTION dim            4  value   -2.9277708421664248E-004
 DIRECTION dim            5  value   -5.4522383322321683E-005
 DIRECTION dim            6  value    1.8305982752426408E-004
 DIRECTION dim            7  value   -4.4846330434219053E-005
 DIRECTION dim            8  value   -2.4570250084903053E-004
 DIRECTION dim            9  value    6.4308561967492341E-004
 DIRECTION dim           10  value   -4.4615247486219851E-005
 DIRECTION dim           11  value   -3.3364114665713677E-004
 DIRECTION dim           12  value    7.0781380395049131E-004
 DIRECTION dim           13  value   -1.7585625612347593E-005
 DIRECTION dim           14  value   -3.9638376000178193E-004
 DIRECTION dim           15  value    5.8021764355167392E-004
 DIRECTION dim           16  value    2.8056001477305210E-004
 DIRECTION dim           17  value    1.9055838575963356E-004
 DIRECTION dim           18  value    8.5142982536351517E-004
 DIRECTION dim           19  value   -2.0062249459676089E-004
 DIRECTION dim           20  value    1.3731374945184454E-004
 DIRECTION dim           21  value    9.0926924013892078E-004
 DIRECTION dim           22  value   -6.7147468843751297E-005
 DIRECTION dim           23  value    1.7470625338758503E-004
 DIRECTION dim           24  value    4.6983319872627492E-004
 DIRECTION dim           25  value   -5.0479442699412206E-005
 DIRECTION dim           26  value   -2.2443115518044543E-004
 DIRECTION dim           27  value    4.8081187417083900E-004
 DIRECTION dim           28  value   -2.0672518228091697E-004
 DIRECTION dim           29  value   -1.2260961623734564E-005
 DIRECTION dim           30  value    6.3237899823388483E-004
 DIRECTION dim           31  value    2.5562892105542430E-004
 DIRECTION dim           32  value    2.6262935716778424E-005
 DIRECTION dim           33  value    6.1057739989375109E-004
 DIRECTION dim           34  value   -1.9062289125840453E-004
 DIRECTION dim           35  value    2.3859800641531202E-004
 DIRECTION dim           36  value    5.5275853411175307E-004
 DIRECTION dim           37  value   -8.9802033804720787E-005
 DIRECTION dim           38  value   -1.6562582878715100E-004
 DIRECTION dim           39  value    5.8113444970731508E-004
 DIRECTION dim           40  value    6.7379232459808340E-005
 DIRECTION dim           41  value   -2.3091507696351742E-004
 DIRECTION dim           42  value    4.1206314990647553E-004
 DIRECTION dim           43  value    1.3515813365382010E-004
 DIRECTION dim           44  value    1.8002042931623130E-004
 DIRECTION dim           45  value    1.7566902581625187E-004
 DIRECTION dim           46  value    9.5842404488792610E-009
 DIRECTION dim           47  value    1.8554292288433600E-007
 DIRECTION dim           48  value    1.6618831072970678E-007
  Cycle:      3 Energy:      -475.567318  Gnorm:      0.000391  CPU:    0.032
 ALPHA BEFORE:    72.354767748778485     
 XC BEFORE:   0.16662566502143852     
  ** Opt : line minimisation
left   ...       0.00000000    -475.56731805
centre ...       1.00000000    -475.56731825
right  ...       2.00000000    -475.56731804

left   ...       0.00000000    -475.56731805
centre ...       1.00000000    -475.56731825
right  ...       2.00000000    -475.56731804
new    ...       1.00000000    -475.56731825

__s__    ...      -1.00000000

 ALPHA AFTER:    1.0000000000000000     
 XC AFTER:   0.16662669626454696     
 SANITY CHECK:   0.99999999999768152     
 DIRECTION dim            1  value    1.0312431084371116E-006
 DIRECTION dim            2  value   -7.3058593231157572E-007
 DIRECTION dim            3  value    3.1067904035067448E-007
 DIRECTION dim            4  value    8.2214684591503599E-008
 DIRECTION dim            5  value   -3.0632145358201024E-007
 DIRECTION dim            6  value    3.7761552120026116E-009
 DIRECTION dim            7  value    3.9665234800126789E-007
 DIRECTION dim            8  value   -6.1912017914363208E-007
 DIRECTION dim            9  value    6.2453238060818485E-007
 DIRECTION dim           10  value    6.3365064010941808E-007
 DIRECTION dim           11  value   -6.2793980534128326E-007
 DIRECTION dim           12  value    1.3300515597321993E-006
 DIRECTION dim           13  value   -1.0726839115603266E-006
 DIRECTION dim           14  value   -1.8203064096889205E-006
 DIRECTION dim           15  value   -8.5929766907060759E-007
 DIRECTION dim           16  value   -4.9864675618771507E-007
 DIRECTION dim           17  value   -5.0644967015303038E-007
 DIRECTION dim           18  value   -2.2128887826543842E-007
 DIRECTION dim           19  value   -1.7648252849076594E-006
 DIRECTION dim           20  value   -1.0717103764792510E-006
 DIRECTION dim           21  value    1.8220150630117187E-007
 DIRECTION dim           22  value   -8.2112204871741171E-007
 DIRECTION dim           23  value   -4.2259543769872002E-007
 DIRECTION dim           24  value   -4.4491174563519626E-007
 DIRECTION dim           25  value   -6.7979009623451474E-007
 DIRECTION dim           26  value   -4.8093667830366763E-008
 DIRECTION dim           27  value   -1.1521282298379881E-006
 DIRECTION dim           28  value   -1.1561949513607651E-006
 DIRECTION dim           29  value    5.8200671647784888E-007
 DIRECTION dim           30  value    3.9527989097574716E-008
 DIRECTION dim           31  value   -1.7867376365392262E-006
 DIRECTION dim           32  value    2.1621334092771691E-007
 DIRECTION dim           33  value   -9.4222118242699495E-007
 DIRECTION dim           34  value   -1.4606000244019200E-006
 DIRECTION dim           35  value   -2.7758651893336139E-007
 DIRECTION dim           36  value   -7.5501116182347009E-007
 DIRECTION dim           37  value   -1.5336731336561512E-006
 DIRECTION dim           38  value   -4.0553430340473092E-007
 DIRECTION dim           39  value   -1.1879408959711217E-006
 DIRECTION dim           40  value   -1.4806581241089297E-006
 DIRECTION dim           41  value    8.8164201337963918E-008
 DIRECTION dim           42  value   -1.6885201763217706E-006
 DIRECTION dim           43  value    3.0369825025952697E-005
 DIRECTION dim           44  value   -1.2106305067275917E-005
 DIRECTION dim           45  value   -9.7915326650398567E-006
 DIRECTION dim           46  value   -1.6072576727112210E-009
 DIRECTION dim           47  value   -1.7766110234694289E-007
 DIRECTION dim           48  value   -1.5774820935279156E-007


  **** Optimisation achieved ****


  Final energy =    -475.56731825 eV
  Final Gnorm  =       0.00002089

  Components of energy : 

--------------------------------------------------------------------------------
  Interatomic potentials     =          65.00988084 eV    
  Monopole - monopole (real) =        -237.15355310 eV    
  Monopole - monopole (recip)=        -303.42364599 eV    
  Monopole - monopole (total)=        -540.57719909 eV    
--------------------------------------------------------------------------------
  Total lattice energy       =        -475.56731825 eV    
--------------------------------------------------------------------------------
  Total lattice energy       =          -45884.9765 kJ/(mole unit cells)
--------------------------------------------------------------------------------

  Final fractional coordinates of atoms :

--------------------------------------------------------------------------------
   No.  Atomic        x           y          z          Radius
        Label       (Frac)      (Frac)     (Frac)       (Angs) 
--------------------------------------------------------------------------------
     1  Sr    c     0.999960    0.999870    0.000550    0.000000
     2  Ti    c     0.166627    0.499870    0.500550    0.000000
     3  O     c     0.999960    0.499870    0.500550    0.000000
     4  O     c     0.166627    0.999870    0.500550    0.000000
     5  O     c     0.166627    0.499870    0.000550    0.000000
     6  Sr    c     0.333293    0.999870    0.000550    0.000000
     7  Ti    c     0.499960    0.499870    0.500550    0.000000
     8  O     c     0.333293    0.499870    0.500550    0.000000
     9  O     c     0.499960    0.999870    0.500550    0.000000
    10  O     c     0.499960    0.499870    0.000550    0.000000
    11  Sr    c     0.666627    0.999870    0.000550    0.000000
    12  Ti    c     0.833293    0.499870    0.500550    0.000000
    13  O     c     0.666627    0.499870    0.500550    0.000000
    14  O     c     0.833293    0.999870    0.500550    0.000000
    15  O     c     0.833293    0.499870    0.000550    0.000000
--------------------------------------------------------------------------------

  Final Cartesian lattice vectors (Angstroms) :

       11.869485   -0.000000    0.000000
       -0.000000    3.956494   -0.000000
        0.000000   -0.000000    3.956494


  Final cell parameters and derivatives :

--------------------------------------------------------------------------------
       a           11.869485 Angstrom     dE/de1(xx)     0.000116 eV/strain
       b            3.956494 Angstrom     dE/de2(yy)     0.000017 eV/strain
       c            3.956494 Angstrom     dE/de3(zz)     0.000021 eV/strain
       alpha       90.000000 Degrees      dE/de4(yz)    -0.000000 eV/strain
       beta        90.000000 Degrees      dE/de5(xz)     0.000000 eV/strain
       gamma       90.000000 Degrees      dE/de6(xy)    -0.000001 eV/strain
--------------------------------------------------------------------------------

  Primitive cell volume =           185.803067 Angs**3

  Density of cell =      4.919947 g/cm**3

  Non-primitive cell volume =           185.803067 Angs**3


  Final internal derivatives :

--------------------------------------------------------------------------------
   No.  Atomic          a             b             c           Radius
        Label          (eV)          (eV)          (eV)        (eV/Angs)
--------------------------------------------------------------------------------
      1 Sr    c       0.000000      0.000000      0.000000      0.000000
      2 Ti    c      -0.000224     -0.000002     -0.000014      0.000000
      3 O     c       0.000603      0.000000     -0.000003      0.000000
      4 O     c       0.000001     -0.000001     -0.000002      0.000000
      5 O     c      -0.000002     -0.000002      0.000015      0.000000
      6 Sr    c      -0.000053     -0.000006     -0.000002      0.000000
      7 Ti    c      -0.000176      0.000011      0.000035      0.000000
      8 O     c       0.000340      0.000006      0.000005      0.000000
      9 O     c      -0.000117      0.000013     -0.000006      0.000000
     10 O     c      -0.000115     -0.000019     -0.000023      0.000000
     11 Sr    c      -0.000167     -0.000003     -0.000001      0.000000
     12 Ti    c      -0.000442      0.000018      0.000019      0.000000
     13 O     c       0.000416      0.000003     -0.000003      0.000000
     14 O     c      -0.000030     -0.000013      0.000004      0.000000
     15 O     c       0.000001     -0.000004     -0.000020      0.000000
--------------------------------------------------------------------------------
  Maximum abs         0.000603      0.000019      0.000035      0.000000
--------------------------------------------------------------------------------


  Time to end of optimisation =       0.0359 seconds

 Exiting ------OPTIONS------

  Peak dynamic memory used =       0.60 MB 


  Timing analysis for GULP :

--------------------------------------------------------------------------------
  Task / Subroutine                                          Time (Seconds)
--------------------------------------------------------------------------------
  Calculation of reciprocal space energy and derivatives          0.0037
  Calculation of real space energy and derivatives                0.0252
--------------------------------------------------------------------------------
  Total CPU time                                                  0.0359
--------------------------------------------------------------------------------


  Job Finished at 13:26.43 21st February   2020                               

