********************************************************************************
*                       GENERAL UTILITY LATTICE PROGRAM                        *
*                                 Julian Gale                                  *
*                       Curtin Institute for Computation                       *
*                           Department of Chemistry                            *
*                    Curtin University, Western Australia                      *
********************************************************************************
* Version = 5.1.1 * Last modified =  25th August 2019                          *
********************************************************************************
*  optimise     - perform optimisation run                                     *
*  conp         - constant pressure calculation                                *
*  nosymmetry   - turn off symmetry after initial structure generation         *
*  full         - generate full unit cell when symmetry is removed             *
*  conjugate    - use conjugate gradients minimiser                            *
********************************************************************************
* ASE calculation                                                              *
********************************************************************************


  Job Started  at 12:07.07  4th February   2020                               

  Number of CPUs =     1


  Total number of configurations input =      1

********************************************************************************
*  Input for Configuration =   1                                               *
********************************************************************************

  Formula = O9Sr3Ti3                                                    

  Number of irreducible atoms/shells =      15


  Total number atoms/shells =      15

  Dimensionality = 3               :  Bulk   



  Cartesian lattice vectors (Angstroms) :

        6.000000    0.000000    0.000000
        0.000000    6.000000    0.000000
        0.000000    0.000000   12.000000

  Cell parameters (Angstroms/Degrees):

  a =       6.0000    alpha =  90.0000
  b =       6.0000    beta  =  90.0000
  c =      12.0000    gamma =  90.0000

  Initial cell volume =         432.000000 Angs**3

  Temperature of configuration =  0.000     K 

  Pressure of configuration =         0.000 GPa 

  Fractional coordinates of asymmetric unit :

--------------------------------------------------------------------------------
   No.  Atomic       x           y          z         Charge      Occupancy
        Label      (Frac)      (Frac)     (Frac)        (e)         (Frac)  
--------------------------------------------------------------------------------
      1 O     c    0.000000    0.333330    0.833330    -2.00000    1.000000    
      2 O     c    0.666670 *  0.666670 *  0.000000 *  -2.00000    1.000000    
      3 O     c    0.333330 *  0.666670 *  0.166670 *  -2.00000    1.000000    
      4 O     c    0.333330 *  0.000000 *  0.166670 *  -2.00000    1.000000    
      5 O     c    0.333330 *  0.333330 *  0.166670 *  -2.00000    1.000000    
      6 O     c    0.333330 *  0.333330 *  0.833330 *  -2.00000    1.000000    
      7 O     c    0.333330 *  0.000000 *  0.500000 *  -2.00000    1.000000    
      8 O     c    0.666670 *  0.000000 *  0.000000 *  -2.00000    1.000000    
      9 O     c    0.666670 *  0.000000 *  0.166670 *  -2.00000    1.000000    
     10 Sr    c    0.500000 *  0.833330 *  0.916670 *   2.00000    1.000000    
     11 Sr    c    0.166670 *  0.500000 *  0.916670 *   2.00000    1.000000    
     12 Sr    c    0.166670 *  0.833330 *  0.416670 *   2.00000    1.000000    
     13 Ti    c    0.833330 *  0.500000 *  0.416670 *   4.00000    1.000000    
     14 Ti    c    0.166670 *  0.166670 *  0.916670 *   4.00000    1.000000    
     15 Ti    c    0.833330 *  0.833330 *  0.583330 *   4.00000    1.000000    
--------------------------------------------------------------------------------



********************************************************************************
*  General input information                                                   *
********************************************************************************

  Species output for all configurations : 

--------------------------------------------------------------------------------
  Species    Type    Atomic    Atomic    Charge       Radii (Angs)     Library
                     Number     Mass       (e)     Cova   Ionic  VDW   Symbol
--------------------------------------------------------------------------------
    O        Core        8      16.00  -2.000000   0.730  0.000  1.360          
    Sr       Core       38      87.62   2.000000   1.120  0.000  1.670          
    Ti       Core       22      47.88   4.000000   1.470  0.000  2.190          
--------------------------------------------------------------------------------


  Lattice summation method               =    Ewald          (3-D)
                                         =    Parry          (2-D)
                                         =    Saunders et al (1-D)
  Accuracy factor for lattice sums       =   12.000


  Time limit = Infinity

  Maximum range for interatomic potentials =    100000.000000 Angstroms

  General interatomic potentials :

--------------------------------------------------------------------------------
Atom  Types   Potential      Parameter       Value         Units   Cutoffs(Ang)
  1     2                                                            Min /  Max 
--------------------------------------------------------------------------------
O    c Sr   c Buckingham    Buckingham A     1952.3900    eV        0.000 10.000
                            Buckingham rho  0.33685000    Ang       
                            Buckingham C     19.220000    eV*Ang^6  
--------------------------------------------------------------------------------
O    c Ti   c Buckingham    Buckingham A     4590.7279    eV        0.000 10.000
                            Buckingham rho  0.26100000    Ang       
                            Buckingham C     0.0000000    eV*Ang^6  
--------------------------------------------------------------------------------
O    c O    c Buckingham    Buckingham A     1388.7700    eV        0.000 10.000
                            Buckingham rho  0.36262000    Ang       
                            Buckingham C     175.00000    eV*Ang^6  
--------------------------------------------------------------------------------
 Calling ------OPTIONS------

********************************************************************************
*  Output for configuration   1                                                *
********************************************************************************


  Components of energy : 

--------------------------------------------------------------------------------
  Interatomic potentials     =          86.73882635 eV    
  Monopole - monopole (real) =         -15.03500613 eV    
  Monopole - monopole (recip)=        -125.05826005 eV    
  Monopole - monopole (total)=        -140.09326618 eV    
--------------------------------------------------------------------------------
  Total lattice energy       =         -53.35443983 eV    
--------------------------------------------------------------------------------
  Total lattice energy       =           -5147.8878 kJ/(mole unit cells)
--------------------------------------------------------------------------------


  Number of variables =       48

  Maximum number of calculations  =          1000
  Maximum Hessian update interval =            10
  Maximum step size               =   1.000000000
  Maximum parameter tolerance     =   0.000010000
  Maximum function  tolerance     =   0.000010000
  Maximum gradient  tolerance     =   0.001000000
  Maximum gradient  component     =   0.010000000

  Cell parameters to be optimised using strains

  Conjugate gradient optimiser to be used

  Lower half triangular hessian to be used

  Minimiser to switch to BFGS with exact hessian
  When gradient norm is less than     0.100000

  Start of bulk optimisation :

  Cycle:      0 Energy:       -53.354440  Gnorm:     31.391907  CPU:    0.011
 Perform trimming
 Line minimisation2
 ALPHA BEFORE:    1.0000000000000000     
  ** Opt : line minimisation
left   ...       0.00000000     -53.35443983
centre ...       0.25000000    -118.66801073
right  ...       0.50000000    -168.59695500

left   ...       0.00000000     -53.35443983
centre ...       0.25000000    -118.66801073
right  ...       0.50000000    -168.59695500
new    ...       1.18634475    -253.88567143

__s__    ...       0.68634475

left   ...       0.25000000    -118.66801073
centre ...       0.50000000    -168.59695500
right  ...       1.18634475    -253.88567143
new    ...       1.61423926    -275.96437803

__s__    ...       0.42789451

left   ...       0.50000000    -168.59695500
centre ...       1.18634475    -253.88567143
right  ...       1.61423926    -275.96437803
new    ...       1.79588653    -278.25586204

__s__    ...       0.18164727

left   ...       1.18634475    -253.88567143
centre ...       1.61423926    -275.96437803
right  ...       1.79588653    -278.25586204
new    ...       1.80368654    -278.26112510

__s__    ...       0.00780001

 ALPHA AFTER:    1.8036865373670468     
  Cycle:      1 Energy:      -278.261125  Gnorm:      9.633754  CPU:    0.024
 Perform trimming
 Line minimisation2
 ALPHA BEFORE:    1.8036865373670468     
  ** Opt : line minimisation
left   ...       0.00000000    -278.26112510
centre ...       0.45092163    -313.86530737
right  ...       0.90184327    -207.04532650

left   ...       0.00000000    -278.26112510
centre ...       0.45092163    -313.86530737
right  ...       0.90184327    -207.04532650
new    ...       0.33818534    -311.31476031

__s__    ...      -0.56365793

left   ...       0.33818534    -311.31476031
centre ...       0.45092163    -313.86530737
right  ...       0.90184327    -207.04532650
new    ...       0.41912264    -313.89304184

__s__    ...       0.08093730

left   ...       0.33818534    -311.31476031
centre ...       0.41912264    -313.89304184
right  ...       0.45092163    -313.86530737
new    ...       0.43351994    -313.96528295

__s__    ...       0.01439730

 ALPHA AFTER:   0.43351993591050947     
  Cycle:      2 Energy:      -313.965283  Gnorm:     10.323993  CPU:    0.031
 Perform trimming
 Line minimisation2
 ALPHA BEFORE:   0.43351993591050947     
  ** Opt : line minimisation
left   ...       0.00000000    -313.96528295
centre ...       0.10837998    -328.49618483
right  ...       0.21675997    -336.95913787

left   ...       0.00000000    -313.96528295
centre ...       0.10837998    -328.49618483
right  ...       0.21675997    -336.95913787
new    ...       0.31372727    -342.32922179

__s__    ...       0.09696730

left   ...       0.10837998    -328.49618483
centre ...       0.21675997    -336.95913787
right  ...       0.31372727    -342.32922179
new    ...       0.51567117    -348.64034353

__s__    ...       0.20194390

left   ...       0.21675997    -336.95913787
centre ...       0.31372727    -342.32922179
right  ...       0.51567117    -348.64034353
new    ...       0.60827795    -347.11950994

__s__    ...       0.09260678

left   ...       0.31372727    -342.32922179
centre ...       0.51567117    -348.64034353
right  ...       0.60827795    -347.11950994
new    ...       0.51124229    -348.61199333

__s__    ...      -0.09703565

left   ...       0.51124229    -348.61199333
centre ...       0.51567117    -348.64034353
right  ...       0.60827795    -347.11950994
new    ...       0.52706422    -348.67815793

__s__    ...       0.01582193

 ALPHA AFTER:   0.52706422453083079     
  Cycle:      3 Energy:      -348.678158  Gnorm:      9.744716  CPU:    0.037
 Line minimisation2
 ALPHA BEFORE:   0.52706422453083079     
  ** Opt : line minimisation
left   ...       0.00000000    -348.67815793
centre ...       0.13176606    -366.24553655
right  ...       0.26353211    -289.68166079

left   ...       0.00000000    -348.67815793
centre ...       0.13176606    -366.24553655
right  ...       0.26353211    -289.68166079
new    ...       0.09047405    -364.53473298

__s__    ...      -0.17305806

left   ...       0.09047405    -364.53473298
centre ...       0.13176606    -366.24553655
right  ...       0.26353211    -289.68166079
new    ...       0.11687927    -366.27877170

__s__    ...       0.02640521

left   ...       0.09047405    -364.53473298
centre ...       0.11687927    -366.27877170
right  ...       0.13176606    -366.24553655
new    ...       0.12364762    -366.36882043

__s__    ...       0.00676836

 ALPHA AFTER:   0.12364762186028617     
  Cycle:      4 Energy:      -366.368820  Gnorm:      9.373926  CPU:    0.042
 Line minimisation2
 ALPHA BEFORE:   0.12364762186028617     
  ** Opt : line minimisation
left   ...       0.00000000    -366.36882043
centre ...       0.03091191    -372.06395627
right  ...       0.06182381    -376.60536376

left   ...       0.00000000    -366.36882043
centre ...       0.03091191    -372.06395627
right  ...       0.06182381    -376.60536376
new    ...       0.16804603    -383.45823040

__s__    ...       0.10622222

left   ...       0.03091191    -372.06395627
centre ...       0.06182381    -376.60536376
right  ...       0.16804603    -383.45823040
new    ...       0.16861892    -383.45951421

__s__    ...       0.00057288

 ALPHA AFTER:   0.16861891777557195     
  Cycle:      5 Energy:      -383.459514  Gnorm:     10.122750  CPU:    0.046
 Line minimisation2
 ALPHA BEFORE:   0.16861891777557195     
  ** Opt : line minimisation
left   ...       0.00000000    -383.45951421
centre ...       0.04215473    -390.59663227
right  ...       0.08430946    -393.66758737

left   ...       0.00000000    -383.45951421
centre ...       0.04215473    -390.59663227
right  ...       0.08430946    -393.66758737
new    ...       0.09506930    -394.00163825

__s__    ...       0.01075984

 ALPHA AFTER:    9.5069303273707773E-002
  Cycle:      6 Energy:      -394.001638  Gnorm:      7.875622  CPU:    0.050
 Line minimisation2
 ALPHA BEFORE:    9.5069303273707773E-002
  ** Opt : line minimisation
left   ...       0.00000000    -394.00163825
centre ...       0.02376733    -397.46787865
right  ...       0.04753465    -400.54092754

left   ...       0.00000000    -394.00163825
centre ...       0.02376733    -397.46787865
right  ...       0.04753465    -400.54092754
new    ...       0.22140818    -409.00340274

__s__    ...       0.17387353

left   ...       0.02376733    -397.46787865
centre ...       0.04753465    -400.54092754
right  ...       0.22140818    -409.00340274
new    ...       0.19412419    -409.59728572

__s__    ...      -0.02728400

left   ...       0.04753465    -400.54092754
centre ...       0.19412419    -409.59728572
right  ...       0.22140818    -409.00340274
new    ...       0.18511635    -409.60933571

__s__    ...      -0.00900783

 ALPHA AFTER:   0.18511635336309865     
  Cycle:      7 Energy:      -409.609336  Gnorm:      5.169000  CPU:    0.055
 Line minimisation2
 ALPHA BEFORE:   0.18511635336309865     
  ** Opt : line minimisation
left   ...       0.00000000    -409.60933571
centre ...       0.04627909    -412.03805314
right  ...       0.09255818    -413.59352403

left   ...       0.00000000    -409.60933571
centre ...       0.04627909    -412.03805314
right  ...       0.09255818    -413.59352403
new    ...       0.15185328    -414.57555438

__s__    ...       0.05929511

left   ...       0.04627909    -412.03805314
centre ...       0.09255818    -413.59352403
right  ...       0.15185328    -414.57555438
new    ...       0.17348442    -414.70248329

__s__    ...       0.02163114

 ALPHA AFTER:   0.17348442471467709     
  Cycle:      8 Energy:      -414.702483  Gnorm:      5.432087  CPU:    0.059
 Line minimisation2
 ALPHA BEFORE:   0.17348442471467709     
  ** Opt : line minimisation
left   ...       0.00000000    -414.70248329
centre ...       0.04337111    -417.53902813
right  ...       0.08674221    -419.85590721

left   ...       0.00000000    -414.70248329
centre ...       0.04337111    -417.53902813
right  ...       0.08674221    -419.85590721
new    ...       0.25842251    -424.31186834

__s__    ...       0.17168030

left   ...       0.04337111    -417.53902813
centre ...       0.08674221    -419.85590721
right  ...       0.25842251    -424.31186834
new    ...       0.27419682    -424.35968547

__s__    ...       0.01577431

 ALPHA AFTER:   0.27419681763664078     
  Cycle:      9 Energy:      -424.359685  Gnorm:      5.549823  CPU:    0.064
 Line minimisation2
 ALPHA BEFORE:   0.27419681763664078     
  ** Opt : line minimisation
left   ...       0.00000000    -424.35968547
centre ...       0.06854920    -428.44210897
right  ...       0.13709841    -430.48089718

left   ...       0.00000000    -424.35968547
centre ...       0.06854920    -428.44210897
right  ...       0.13709841    -430.48089718
new    ...       0.17121043    -430.46865990

__s__    ...       0.03411202

 ALPHA AFTER:   0.13709840881832039     
  Cycle:     10 Energy:      -430.480897  Gnorm:      3.629462  CPU:    0.067
 Line minimisation2
 ALPHA BEFORE:   0.13709840881832039     
  ** Opt : line minimisation
left   ...       0.00000000    -430.48089718
centre ...       0.03427460    -431.55002174
right  ...       0.06854920    -432.47594250

left   ...       0.00000000    -430.48089718
centre ...       0.03427460    -431.55002174
right  ...       0.06854920    -432.47594250
new    ...       0.27302309    -435.24120660

__s__    ...       0.20447388

left   ...       0.03427460    -431.55002174
centre ...       0.06854920    -432.47594250
right  ...       0.27302309    -435.24120660
new    ...       0.29045083    -435.26827231

__s__    ...       0.01742775

 ALPHA AFTER:   0.29045083384423631     
  Cycle:     11 Energy:      -435.268272  Gnorm:      3.544090  CPU:    0.071
 Line minimisation2
 ALPHA BEFORE:   0.29045083384423631     
  ** Opt : line minimisation
left   ...       0.00000000    -435.26827231
centre ...       0.07261271    -437.21375519
right  ...       0.14522542    -438.70995590

left   ...       0.00000000    -435.26827231
centre ...       0.07261271    -437.21375519
right  ...       0.14522542    -438.70995590
new    ...       0.35073410    -440.24219168

__s__    ...       0.20550869

left   ...       0.07261271    -437.21375519
centre ...       0.14522542    -438.70995590
right  ...       0.35073410    -440.24219168
new    ...       0.32682835    -440.28607881

__s__    ...      -0.02390575

 ALPHA AFTER:   0.32682835166717744     
  Cycle:     12 Energy:      -440.286079  Gnorm:      3.584659  CPU:    0.075
 Line minimisation2
 ALPHA BEFORE:   0.32682835166717744     
  ** Opt : line minimisation
left   ...       0.00000000    -440.28607881
centre ...       0.08170709    -442.38283544
right  ...       0.16341418    -443.90327473

left   ...       0.00000000    -440.28607881
centre ...       0.08170709    -442.38283544
right  ...       0.16341418    -443.90327473
new    ...       0.33812012    -445.42788397

__s__    ...       0.17470594

left   ...       0.08170709    -442.38283544
centre ...       0.16341418    -443.90327473
right  ...       0.33812012    -445.42788397
new    ...       0.36398878    -445.46665330

__s__    ...       0.02586867

 ALPHA AFTER:   0.36398878206075391     
  Cycle:     13 Energy:      -445.466653  Gnorm:      4.077131  CPU:    0.078
 Line minimisation2
 ALPHA BEFORE:   0.36398878206075391     
  ** Opt : line minimisation
left   ...       0.00000000    -445.46665330
centre ...       0.09099720    -448.00099191
right  ...       0.18199439    -448.27166634

left   ...       0.00000000    -445.46665330
centre ...       0.09099720    -448.00099191
right  ...       0.18199439    -448.27166634
new    ...       0.14737665    -448.47817101

__s__    ...      -0.03461774

 ALPHA AFTER:   0.14737665355903223     
  Cycle:     14 Energy:      -448.478171  Gnorm:      3.148754  CPU:    0.081
 Line minimisation2
 ALPHA BEFORE:   0.14737665355903223     
  ** Opt : line minimisation
left   ...       0.00000000    -448.47817101
centre ...       0.03684416    -449.27362719
right  ...       0.07368833    -449.97644110

left   ...       0.00000000    -448.47817101
centre ...       0.03684416    -449.27362719
right  ...       0.07368833    -449.97644110
new    ...       0.33477786    -452.49960298

__s__    ...       0.26108953

left   ...       0.03684416    -449.27362719
centre ...       0.07368833    -449.97644110
right  ...       0.33477786    -452.49960298
new    ...       0.35719871    -452.51821848

__s__    ...       0.02242085

 ALPHA AFTER:   0.35719870504015327     
  Cycle:     15 Energy:      -452.518218  Gnorm:      1.952356  CPU:    0.084
 Line minimisation2
 ALPHA BEFORE:   0.35719870504015327     
  ** Opt : line minimisation
left   ...       0.00000000    -452.51821848
centre ...       0.08929968    -453.25381201
right  ...       0.17859935    -453.86294304

left   ...       0.00000000    -452.51821848
centre ...       0.08929968    -453.25381201
right  ...       0.17859935    -453.86294304
new    ...       0.56407861    -454.80262613

__s__    ...       0.38547926

left   ...       0.08929968    -453.25381201
centre ...       0.17859935    -453.86294304
right  ...       0.56407861    -454.80262613
new    ...       0.50335323    -454.86416989

__s__    ...      -0.06072538

 ALPHA AFTER:   0.50335323499104256     
  Cycle:     16 Energy:      -454.864170  Gnorm:      2.341955  CPU:    0.088
 Perform trimming
 Line minimisation2
 ALPHA BEFORE:   0.50335323499104256     
  ** Opt : line minimisation
left   ...       0.00000000    -454.86416989
centre ...       0.12583831    -456.01331558
right  ...       0.25167662    -456.63672262

left   ...       0.00000000    -454.86416989
centre ...       0.12583831    -456.01331558
right  ...       0.25167662    -456.63672262
new    ...       0.33797321    -456.61746931

__s__    ...       0.08629659

 ALPHA AFTER:   0.25167661749552128     
  Cycle:     17 Energy:      -456.636723  Gnorm:      1.673606  CPU:    0.090
 Line minimisation2
 ALPHA BEFORE:   0.25167661749552128     
  ** Opt : line minimisation
left   ...       0.00000000    -456.63672262
centre ...       0.06291915    -456.98423771
right  ...       0.12583831    -457.22594245

left   ...       0.00000000    -456.63672262
centre ...       0.06291915    -456.98423771
right  ...       0.12583831    -457.22594245
new    ...       0.23810622    -457.42724139

__s__    ...       0.11226791

left   ...       0.06291915    -456.98423771
centre ...       0.12583831    -457.22594245
right  ...       0.23810622    -457.42724139
new    ...       0.25864202    -457.43535044

__s__    ...       0.02053580

 ALPHA AFTER:   0.25864201681216065     
  Cycle:     18 Energy:      -457.435350  Gnorm:      1.016826  CPU:    0.094
 Line minimisation2
 ALPHA BEFORE:   0.25864201681216065     
  ** Opt : line minimisation
left   ...       0.00000000    -457.43535044
centre ...       0.06466050    -457.58554709
right  ...       0.12932101    -457.71714814

left   ...       0.00000000    -457.43535044
centre ...       0.06466050    -457.58554709
right  ...       0.12932101    -457.71714814
new    ...       0.55459304    -458.09469567

__s__    ...       0.42527203

left   ...       0.06466050    -457.58554709
centre ...       0.12932101    -457.71714814
right  ...       0.55459304    -458.09469567
new    ...       0.53148131    -458.09684200

__s__    ...      -0.02311173

 ALPHA AFTER:   0.53148131012129118     
  Cycle:     19 Energy:      -458.096842  Gnorm:      0.931426  CPU:    0.097
 Line minimisation2
 ALPHA BEFORE:   0.53148131012129118     
  ** Opt : line minimisation
left   ...       0.00000000    -458.09684200
centre ...       0.13287033    -458.28112790
right  ...       0.26574066    -458.29859864

left   ...       0.00000000    -458.09684200
centre ...       0.13287033    -458.28112790
right  ...       0.26574066    -458.29859864
new    ...       0.21322115    -458.31178500

__s__    ...      -0.05251951

 ALPHA AFTER:   0.21322115003696843     
  Cycle:     20 Energy:      -458.311785  Gnorm:      0.608768  CPU:    0.100
 Line minimisation2
 ALPHA BEFORE:   0.21322115003696843     
  ** Opt : line minimisation
left   ...       0.00000000    -458.31178500
centre ...       0.05330529    -458.35588932
right  ...       0.10661058    -458.39575751

left   ...       0.00000000    -458.31178500
centre ...       0.05330529    -458.35588932
right  ...       0.10661058    -458.39575751
new    ...       0.58164012    -458.57707862

__s__    ...       0.47502954

left   ...       0.05330529    -458.35588932
centre ...       0.10661058    -458.39575751
right  ...       0.58164012    -458.57707862
new    ...       0.61946480    -458.57755392

__s__    ...       0.03782469

 ALPHA AFTER:   0.61946480361405132     
  Cycle:     21 Energy:      -458.577554  Gnorm:      0.832445  CPU:    0.103
 Perform trimming
 Line minimisation2
 ALPHA BEFORE:   0.61946480361405132     
  ** Opt : line minimisation
left   ...       0.00000000    -458.57755392
centre ...       0.15486620    -458.73474143
right  ...       0.30973240    -458.87875240

left   ...       0.00000000    -458.57755392
centre ...       0.15486620    -458.73474143
right  ...       0.30973240    -458.87875240
new    ...       1.30973240    -459.48812868

__s__    ...       1.00000000

left   ...       0.15486620    -458.73474143
centre ...       0.30973240    -458.87875240
right  ...       1.30973240    -459.48812868
new    ...       1.90752221    -459.59387656

__s__    ...       0.59778981

 ALPHA AFTER:    1.9075222114129611     
  Cycle:     22 Energy:      -459.593877  Gnorm:      1.572372  CPU:    0.107
 Perform trimming
 Line minimisation2
 ALPHA BEFORE:    1.9075222114129611     
  ** Opt : line minimisation
left   ...       0.00000000    -459.59387656
centre ...       0.47688055    -460.58330379
right  ...       0.95376111    -461.13538766

left   ...       0.00000000    -459.59387656
centre ...       0.47688055    -460.58330379
right  ...       0.95376111    -461.13538766
new    ...       1.31731478    -461.09718133

__s__    ...       0.36355368

 ALPHA AFTER:   0.95376110570648054     
  Cycle:     23 Energy:      -461.135388  Gnorm:      1.307255  CPU:    0.112
 Line minimisation2
 ALPHA BEFORE:   0.95376110570648054     
  ** Opt : line minimisation
left   ...       0.00000000    -461.13538766
centre ...       0.23844028    -461.98513041
right  ...       0.47688055    -462.34128718

left   ...       0.00000000    -461.13538766
centre ...       0.23844028    -461.98513041
right  ...       0.47688055    -462.34128718
new    ...       0.52971174    -462.34646952

__s__    ...       0.05283119

 ALPHA AFTER:   0.52971174045798375     
  Cycle:     24 Energy:      -462.346470  Gnorm:      1.345907  CPU:    0.117
 Line minimisation2
 ALPHA BEFORE:   0.52971174045798375     
  ** Opt : line minimisation
left   ...       0.00000000    -462.34646952
centre ...       0.13242794    -462.77354002
right  ...       0.26485587    -462.97737883

left   ...       0.00000000    -462.34646952
centre ...       0.13242794    -462.77354002
right  ...       0.26485587    -462.97737883
new    ...       0.31956538    -462.99386443

__s__    ...       0.05470951

 ALPHA AFTER:   0.31956538488265290     
  Cycle:     25 Energy:      -462.993864  Gnorm:      1.180695  CPU:    0.121
 Line minimisation2
 ALPHA BEFORE:   0.31956538488265290     
  ** Opt : line minimisation
left   ...       0.00000000    -462.99386443
centre ...       0.07989135    -463.21561363
right  ...       0.15978269    -463.37985282

left   ...       0.00000000    -462.99386443
centre ...       0.07989135    -463.21561363
right  ...       0.15978269    -463.37985282
new    ...       0.34799363    -463.54072469

__s__    ...       0.18821094

left   ...       0.07989135    -463.21561363
centre ...       0.15978269    -463.37985282
right  ...       0.34799363    -463.54072469
new    ...       0.34928818    -463.54072980

__s__    ...       0.00129455

 ALPHA AFTER:   0.34928818049016952     
  Cycle:     26 Energy:      -463.540730  Gnorm:      0.945111  CPU:    0.127
 Line minimisation2
 ALPHA BEFORE:   0.34928818049016952     
  ** Opt : line minimisation
left   ...       0.00000000    -463.54072980
centre ...       0.08732205    -463.69893732
right  ...       0.17464409    -463.82512786

left   ...       0.00000000    -463.54072980
centre ...       0.08732205    -463.69893732
right  ...       0.17464409    -463.82512786
new    ...       0.47515096    -464.02183421

__s__    ...       0.30050687

left   ...       0.08732205    -463.69893732
centre ...       0.17464409    -463.82512786
right  ...       0.47515096    -464.02183421
new    ...       0.48546339    -464.02224836

__s__    ...       0.01031244

 ALPHA AFTER:   0.48546339067231281     
  Cycle:     27 Energy:      -464.022248  Gnorm:      0.875254  CPU:    0.133
 Line minimisation2
 ALPHA BEFORE:   0.48546339067231281     
  ** Opt : line minimisation
left   ...       0.00000000    -464.02224836
centre ...       0.12136585    -464.20276389
right  ...       0.24273170    -464.31736175

left   ...       0.00000000    -464.02224836
centre ...       0.12136585    -464.20276389
right  ...       0.24273170    -464.31736175
new    ...       0.39304322    -464.36969467

__s__    ...       0.15031152

 ALPHA AFTER:   0.39304321986880425     
  Cycle:     28 Energy:      -464.369695  Gnorm:      0.629102  CPU:    0.137
 Line minimisation2
 ALPHA BEFORE:   0.39304321986880425     
  ** Opt : line minimisation
left   ...       0.00000000    -464.36969467
centre ...       0.09826080    -464.45498134
right  ...       0.19652161    -464.52755384

left   ...       0.00000000    -464.36969467
centre ...       0.09826080    -464.45498134
right  ...       0.19652161    -464.52755384
new    ...       0.70826372    -464.70941346

__s__    ...       0.51174211

left   ...       0.09826080    -464.45498134
centre ...       0.19652161    -464.52755384
right  ...       0.70826372    -464.70941346
new    ...       0.73524866    -464.70953476

__s__    ...       0.02698494

 ALPHA AFTER:   0.73524866104989728     
  Cycle:     29 Energy:      -464.709535  Gnorm:      0.870446  CPU:    0.143
 Line minimisation2
 ALPHA BEFORE:   0.73524866104989728     
  ** Opt : line minimisation
left   ...       0.00000000    -464.70953476
centre ...       0.18381217    -464.87157455
right  ...       0.36762433    -464.76020662

left   ...       0.00000000    -464.70953476
centre ...       0.18381217    -464.87157455
right  ...       0.36762433    -464.76020662
new    ...       0.20084553    -464.87187903

__s__    ...      -0.16677881

left   ...       0.18381217    -464.87157455
centre ...       0.20084553    -464.87187903
right  ...       0.36762433    -464.76020662
new    ...       0.19471858    -464.87203593

__s__    ...      -0.00612694

 ALPHA AFTER:   0.19471858128166936     
  Cycle:     30 Energy:      -464.872036  Gnorm:      0.433242  CPU:    0.151
 Line minimisation2
 ALPHA BEFORE:   0.19471858128166936     
  ** Opt : line minimisation
left   ...       0.00000000    -464.87203593
centre ...       0.04867965    -464.89199699
right  ...       0.09735929    -464.91017121

left   ...       0.00000000    -464.87203593
centre ...       0.04867965    -464.89199699
right  ...       0.09735929    -464.91017121
new    ...       0.56814607    -464.99255015

__s__    ...       0.47078678

left   ...       0.04867965    -464.89199699
centre ...       0.09735929    -464.91017121
right  ...       0.56814607    -464.99255015
new    ...       0.56187180    -464.99258443

__s__    ...      -0.00627427

 ALPHA AFTER:   0.56187179776213103     
  Cycle:     31 Energy:      -464.992584  Gnorm:      0.484983  CPU:    0.157
 Perform trimming
 Line minimisation2
 ALPHA BEFORE:   0.56187179776213103     
  ** Opt : line minimisation
left   ...       0.00000000    -464.99258443
centre ...       0.14046795    -465.05952601
right  ...       0.28093590    -465.11825710

left   ...       0.00000000    -464.99258443
centre ...       0.14046795    -465.05952601
right  ...       0.28093590    -465.11825710
new    ...       1.21549359    -465.29208763

__s__    ...       0.93455769

left   ...       0.14046795    -465.05952601
centre ...       0.28093590    -465.11825710
right  ...       1.21549359    -465.29208763
new    ...       1.17895962    -465.29246607

__s__    ...      -0.03653397

 ALPHA AFTER:    1.1789596229251622     
  Cycle:     32 Energy:      -465.292466  Gnorm:      0.643537  CPU:    0.162
 Perform trimming
 Line minimisation2
 ALPHA BEFORE:    1.1789596229251622     
  ** Opt : line minimisation
left   ...       0.00000000    -465.29246607
centre ...       0.29473991    -465.45575200
right  ...       0.58947981    -465.52170390

left   ...       0.00000000    -465.29246607
centre ...       0.29473991    -465.45575200
right  ...       0.58947981    -465.52170390
new    ...       0.64182068    -465.52369382

__s__    ...       0.05234086

 ALPHA AFTER:   0.64182067548143495     
  Cycle:     33 Energy:      -465.523694  Gnorm:      0.715902  CPU:    0.167
 Line minimisation2
 ALPHA BEFORE:   0.64182067548143495     
  ** Opt : line minimisation
left   ...       0.00000000    -465.52369382
centre ...       0.16045517    -465.68512197
right  ...       0.32091034    -465.78933243

left   ...       0.00000000    -465.52369382
centre ...       0.16045517    -465.68512197
right  ...       0.32091034    -465.78933243
new    ...       0.53291935    -465.83792178

__s__    ...       0.21200901

 ALPHA AFTER:   0.53291934702045074     
  Cycle:     34 Energy:      -465.837922  Gnorm:      0.811493  CPU:    0.174
 Perform trimming
 Line minimisation2
 ALPHA BEFORE:   0.53291934702045074     
  ** Opt : line minimisation
left   ...       0.00000000    -465.83792178
centre ...       0.13322984    -465.99108098
right  ...       0.26645967    -466.08366171

left   ...       0.00000000    -465.83792178
centre ...       0.13322984    -465.99108098
right  ...       0.26645967    -466.08366171
new    ...       0.40345695    -466.11344369

__s__    ...       0.13699727

 ALPHA AFTER:   0.40345694670686572     
  Cycle:     35 Energy:      -466.113444  Gnorm:      0.606835  CPU:    0.180
 Line minimisation2
 ALPHA BEFORE:   0.40345694670686572     
  ** Opt : line minimisation
left   ...       0.00000000    -466.11344369
centre ...       0.10086424    -466.18893622
right  ...       0.20172847    -466.24420672

left   ...       0.00000000    -466.11344369
centre ...       0.10086424    -466.18893622
right  ...       0.20172847    -466.24420672
new    ...       0.42697700    -466.29455562

__s__    ...       0.22524852

left   ...       0.10086424    -466.18893622
centre ...       0.20172847    -466.24420672
right  ...       0.42697700    -466.29455562
new    ...       0.42669078    -466.29455484

__s__    ...      -0.00028622

 ALPHA AFTER:   0.42697699606543221     
  Cycle:     36 Energy:      -466.294556  Gnorm:      0.585225  CPU:    0.188
 Line minimisation2
 ALPHA BEFORE:   0.42697699606543221     
  ** Opt : line minimisation
left   ...       0.00000000    -466.29455562
centre ...       0.10674425    -466.36997616
right  ...       0.21348850    -466.42632192

left   ...       0.00000000    -466.29455562
centre ...       0.10674425    -466.36997616
right  ...       0.21348850    -466.42632192
new    ...       0.47543240    -466.48159569

__s__    ...       0.26194391

left   ...       0.10674425    -466.36997616
centre ...       0.21348850    -466.42632192
right  ...       0.47543240    -466.48159569
new    ...       0.46723112    -466.48167838

__s__    ...      -0.00820128

 ALPHA AFTER:   0.46723112434600644     
  Cycle:     37 Energy:      -466.481678  Gnorm:      0.455597  CPU:    0.196
 Line minimisation2
 ALPHA BEFORE:   0.46723112434600644     
  ** Opt : line minimisation
left   ...       0.00000000    -466.48167838
centre ...       0.11680778    -466.52971215
right  ...       0.23361556    -466.56166651

left   ...       0.00000000    -466.48167838
centre ...       0.11680778    -466.52971215
right  ...       0.23361556    -466.56166651
new    ...       0.40734217    -466.58040001

__s__    ...       0.17372661

 ALPHA AFTER:   0.40734217287031432     
  Cycle:     38 Energy:      -466.580400  Gnorm:      0.412222  CPU:    0.202
 Line minimisation2
 ALPHA BEFORE:   0.40734217287031432     
  ** Opt : line minimisation
left   ...       0.00000000    -466.58040001
centre ...       0.10183554    -466.61638844
right  ...       0.20367109    -466.64297370

left   ...       0.00000000    -466.58040001
centre ...       0.10183554    -466.61638844
right  ...       0.20367109    -466.64297370
new    ...       0.44066938    -466.66820476

__s__    ...       0.23699829

left   ...       0.10183554    -466.61638844
centre ...       0.20367109    -466.64297370
right  ...       0.44066938    -466.66820476
new    ...       0.43883458    -466.66820786

__s__    ...      -0.00183479

 ALPHA AFTER:   0.43883458461779523     
  Cycle:     39 Energy:      -466.668208  Gnorm:      0.409668  CPU:    0.210
 Line minimisation2
 ALPHA BEFORE:   0.43883458461779523     
  ** Opt : line minimisation
left   ...       0.00000000    -466.66820786
centre ...       0.10970865    -466.70029692
right  ...       0.21941729    -466.71167077

left   ...       0.00000000    -466.66820786
centre ...       0.10970865    -466.70029692
right  ...       0.21941729    -466.71167077
new    ...       0.22479940    -466.71167912

__s__    ...       0.00538211

 ALPHA AFTER:   0.22479940161679898     
  Cycle:     40 Energy:      -466.711679  Gnorm:      0.280863  CPU:    0.216
 Line minimisation2
 ALPHA BEFORE:   0.22479940161679898     
  ** Opt : line minimisation
left   ...       0.00000000    -466.71167912
centre ...       0.05619985    -466.72138644
right  ...       0.11239970    -466.73020164

left   ...       0.00000000    -466.71167912
centre ...       0.05619985    -466.72138644
right  ...       0.11239970    -466.73020164
new    ...       0.63961144    -466.76957824

__s__    ...       0.52721174

left   ...       0.05619985    -466.72138644
centre ...       0.11239970    -466.73020164
right  ...       0.63961144    -466.76957824
new    ...       0.64116452    -466.76957869

__s__    ...       0.00155308

 ALPHA AFTER:   0.64116452265311086     
  Cycle:     41 Energy:      -466.769579  Gnorm:      0.316378  CPU:    0.224
 Perform trimming
 Line minimisation2
 ALPHA BEFORE:   0.64116452265311086     
  ** Opt : line minimisation
left   ...       0.00000000    -466.76957869
centre ...       0.16029113    -466.80207697
right  ...       0.32058226    -466.82778531

left   ...       0.00000000    -466.76957869
centre ...       0.16029113    -466.80207697
right  ...       0.32058226    -466.82778531
new    ...       0.84733752    -466.86599789

__s__    ...       0.52675526

left   ...       0.16029113    -466.80207697
centre ...       0.32058226    -466.82778531
right  ...       0.84733752    -466.86599789
new    ...       0.86765484    -466.86605880

__s__    ...       0.02031732

 ALPHA AFTER:   0.86765484352462496     
  Cycle:     42 Energy:      -466.866059  Gnorm:      0.386136  CPU:    0.232
 Perform trimming
 Line minimisation2
 ALPHA BEFORE:   0.86765484352462496     
  ** Opt : line minimisation
left   ...       0.00000000    -466.86605880
centre ...       0.21691371    -466.91756740
right  ...       0.43382742    -466.93863020

left   ...       0.00000000    -466.86605880
centre ...       0.21691371    -466.91756740
right  ...       0.43382742    -466.93863020
new    ...       0.47543431    -466.93908161

__s__    ...       0.04160689

 ALPHA AFTER:   0.47543430834642514     
  Cycle:     43 Energy:      -466.939082  Gnorm:      0.370384  CPU:    0.239
 Line minimisation2
 ALPHA BEFORE:   0.47543430834642514     
  ** Opt : line minimisation
left   ...       0.00000000    -466.93908161
centre ...       0.11885858    -466.97408272
right  ...       0.23771715    -467.00390592

left   ...       0.00000000    -466.93908161
centre ...       0.11885858    -466.97408272
right  ...       0.23771715    -467.00390592
new    ...       0.86287869    -467.07372933

__s__    ...       0.62516154

left   ...       0.11885858    -466.97408272
centre ...       0.23771715    -467.00390592
right  ...       0.86287869    -467.07372933
new    ...       0.84873090    -467.07378376

__s__    ...      -0.01414779

 ALPHA AFTER:   0.84873089880426911     
  Cycle:     44 Energy:      -467.073784  Gnorm:      0.437465  CPU:    0.247
 Perform trimming
 Line minimisation2
 ALPHA BEFORE:   0.84873089880426911     
  ** Opt : line minimisation
left   ...       0.00000000    -467.07378376
centre ...       0.21218272    -467.14014628
right  ...       0.42436545    -467.17050328

left   ...       0.00000000    -467.07378376
centre ...       0.21218272    -467.14014628
right  ...       0.42436545    -467.17050328
new    ...       0.49716976    -467.17238163

__s__    ...       0.07280431

 ALPHA AFTER:   0.49716976345032227     
  Cycle:     45 Energy:      -467.172382  Gnorm:      0.433509  CPU:    0.253
 Line minimisation2
 ALPHA BEFORE:   0.49716976345032227     
  ** Opt : line minimisation
left   ...       0.00000000    -467.17238163
centre ...       0.12429244    -467.22287644
right  ...       0.24858488    -467.26636106

left   ...       0.00000000    -467.17238163
centre ...       0.12429244    -467.22287644
right  ...       0.24858488    -467.26636106
new    ...       0.95743036    -467.38328426

__s__    ...       0.70884548

left   ...       0.12429244    -467.22287644
centre ...       0.24858488    -467.26636106
right  ...       0.95743036    -467.38328426
new    ...       0.97461062    -467.38323734

__s__    ...       0.01718026

 ALPHA AFTER:   0.95743035960592759     
  Cycle:     46 Energy:      -467.383284  Gnorm:      0.662409  CPU:    0.261
 Perform trimming
 Line minimisation2
 ALPHA BEFORE:   0.95743035960592759     
  ** Opt : line minimisation
left   ...       0.00000000    -467.38328426
centre ...       0.23935759    -467.50498357
right  ...       0.47871518    -467.58069007

left   ...       0.00000000    -467.38328426
centre ...       0.23935759    -467.50498357
right  ...       0.47871518    -467.58069007
new    ...       0.75303099    -467.61157805

__s__    ...       0.27431581

 ALPHA AFTER:   0.75303099197326562     
  Cycle:     47 Energy:      -467.611578  Gnorm:      0.624895  CPU:    0.268
 Line minimisation2
 ALPHA BEFORE:   0.75303099197326562     
  ** Opt : line minimisation
left   ...       0.00000000    -467.61157805
centre ...       0.18825775    -467.75467330
right  ...       0.37651550    -467.84054157

left   ...       0.00000000    -467.61157805
centre ...       0.18825775    -467.75467330
right  ...       0.37651550    -467.84054157
new    ...       0.56486466    -467.87181208

__s__    ...       0.18834916

 ALPHA AFTER:   0.56486465957173659     
  Cycle:     48 Energy:      -467.871812  Gnorm:      0.610149  CPU:    0.274
 Line minimisation2
 ALPHA BEFORE:   0.56486465957173659     
  ** Opt : line minimisation
left   ...       0.00000000    -467.87181208
centre ...       0.14121616    -467.98271505
right  ...       0.28243233    -468.06364710

left   ...       0.00000000    -467.87181208
centre ...       0.14121616    -467.98271505
right  ...       0.28243233    -468.06364710
new    ...       0.59315779    -468.13657979

__s__    ...       0.31072546

left   ...       0.14121616    -467.98271505
centre ...       0.28243233    -468.06364710
right  ...       0.59315779    -468.13657979
new    ...       0.59453514    -468.13657209

__s__    ...       0.00137734

 ALPHA AFTER:   0.59315779408026281     
  Cycle:     49 Energy:      -468.136580  Gnorm:      0.825877  CPU:    0.282
 Line minimisation2
 ALPHA BEFORE:   0.59315779408026281     
  ** Opt : line minimisation
left   ...       0.00000000    -468.13657979
centre ...       0.14828945    -468.29596850
right  ...       0.29657890    -468.30250707

left   ...       0.00000000    -468.13657979
centre ...       0.14828945    -468.29596850
right  ...       0.29657890    -468.30250707
new    ...       0.22877765    -468.31845941

__s__    ...      -0.06780125

 ALPHA AFTER:   0.22877764663147485     
  Cycle:     50 Energy:      -468.318459  Gnorm:      0.489871  CPU:    0.289
 Line minimisation2
 ALPHA BEFORE:   0.22877764663147485     
  ** Opt : line minimisation
left   ...       0.00000000    -468.31845941
centre ...       0.05719441    -468.34802602
right  ...       0.11438882    -468.37311833

left   ...       0.00000000    -468.31845941
centre ...       0.05719441    -468.34802602
right  ...       0.11438882    -468.37311833
new    ...       0.40654360    -468.42922980

__s__    ...       0.29215478

left   ...       0.05719441    -468.34802602
centre ...       0.11438882    -468.37311833
right  ...       0.40654360    -468.42922980
new    ...       0.39647651    -468.42933665

__s__    ...      -0.01006710

 ALPHA AFTER:   0.39647650606413343     
  Cycle:     51 Energy:      -468.429337  Gnorm:      0.429695  CPU:    0.297
 Line minimisation2
 ALPHA BEFORE:   0.39647650606413343     
  ** Opt : line minimisation
left   ...       0.00000000    -468.42933665
centre ...       0.09911913    -468.47022673
right  ...       0.19823825    -468.50876637

left   ...       0.00000000    -468.42933665
centre ...       0.09911913    -468.47022673
right  ...       0.19823825    -468.50876637
new    ...       1.19823825    -468.73866025

__s__    ...       1.00000000

left   ...       0.09911913    -468.47022673
centre ...       0.19823825    -468.50876637
right  ...       1.19823825    -468.73866025
new    ...       1.49319396    -468.75022253

__s__    ...       0.29495571

 ALPHA AFTER:    1.4931939637347769     
  Cycle:     52 Energy:      -468.750223  Gnorm:      0.719992  CPU:    0.305
 Perform trimming
 Line minimisation2
 ALPHA BEFORE:    1.4931939637347769     
  ** Opt : line minimisation
left   ...       0.00000000    -468.75022253
centre ...       0.37329849    -468.89172514
right  ...       0.74659698    -468.86061166

left   ...       0.00000000    -468.75022253
centre ...       0.37329849    -468.89172514
right  ...       0.74659698    -468.86061166
new    ...       0.49266192    -468.90091070

__s__    ...      -0.25393506

left   ...       0.37329849    -468.89172514
centre ...       0.49266192    -468.90091070
right  ...       0.74659698    -468.86061166
new    ...       0.49393223    -468.90091593

__s__    ...       0.00127031

 ALPHA AFTER:   0.49393222752690558     
  Cycle:     53 Energy:      -468.900916  Gnorm:      0.422632  CPU:    0.314
 Line minimisation2
 ALPHA BEFORE:   0.49393222752690558     
  ** Opt : line minimisation
left   ...       0.00000000    -468.90091593
centre ...       0.12348306    -468.94699573
right  ...       0.24696611    -468.98211098

left   ...       0.00000000    -468.90091593
centre ...       0.12348306    -468.94699573
right  ...       0.24696611    -468.98211098
new    ...       0.58069386    -469.02163955

__s__    ...       0.33372774

left   ...       0.12348306    -468.94699573
centre ...       0.24696611    -468.98211098
right  ...       0.58069386    -469.02163955
new    ...       0.57701748    -469.02164893

__s__    ...      -0.00367638

 ALPHA AFTER:   0.57701747823701743     
  Cycle:     54 Energy:      -469.021649  Gnorm:      0.418173  CPU:    0.322
 Line minimisation2
 ALPHA BEFORE:   0.57701747823701743     
  ** Opt : line minimisation
left   ...       0.00000000    -469.02164893
centre ...       0.14425437    -469.06891067
right  ...       0.28850874    -469.09309622

left   ...       0.00000000    -469.02164893
centre ...       0.14425437    -469.06891067
right  ...       0.28850874    -469.09309622
new    ...       0.36757074    -469.09629592

__s__    ...       0.07906200

 ALPHA AFTER:   0.36757074274908408     
  Cycle:     55 Energy:      -469.096296  Gnorm:      0.342918  CPU:    0.328
 Line minimisation2
 ALPHA BEFORE:   0.36757074274908408     
  ** Opt : line minimisation
left   ...       0.00000000    -469.09629592
centre ...       0.09189269    -469.11804898
right  ...       0.18378537    -469.13407980

left   ...       0.00000000    -469.09629592
centre ...       0.09189269    -469.11804898
right  ...       0.18378537    -469.13407980
new    ...       0.39527529    -469.15067738

__s__    ...       0.21148992

left   ...       0.09189269    -469.11804898
centre ...       0.18378537    -469.13407980
right  ...       0.39527529    -469.15067738
new    ...       0.41357290    -469.15074470

__s__    ...       0.01829761

 ALPHA AFTER:   0.41357289549841919     
  Cycle:     56 Energy:      -469.150745  Gnorm:      0.289638  CPU:    0.337
 Line minimisation2
 ALPHA BEFORE:   0.41357289549841919     
  ** Opt : line minimisation
left   ...       0.00000000    -469.15074470
centre ...       0.10339322    -469.16925380
right  ...       0.20678645    -469.18470966

left   ...       0.00000000    -469.15074470
centre ...       0.10339322    -469.16925380
right  ...       0.20678645    -469.18470966
new    ...       0.67847844    -469.21611381

__s__    ...       0.47169199

left   ...       0.10339322    -469.16925380
centre ...       0.20678645    -469.18470966
right  ...       0.67847844    -469.21611381
new    ...       0.67353655    -469.21610116

__s__    ...      -0.00494189

 ALPHA AFTER:   0.67847844193172413     
  Cycle:     57 Energy:      -469.216114  Gnorm:      0.335530  CPU:    0.345
 Line minimisation2
 ALPHA BEFORE:   0.67847844193172413     
  ** Opt : line minimisation
left   ...       0.00000000    -469.21611381
centre ...       0.16961961    -469.24841746
right  ...       0.33923922    -469.25755493

left   ...       0.00000000    -469.21611381
centre ...       0.16961961    -469.24841746
right  ...       0.33923922    -469.25755493
new    ...       0.32133266    -469.25770205

__s__    ...      -0.01790656

 ALPHA AFTER:   0.32133265867034955     
  Cycle:     58 Energy:      -469.257702  Gnorm:      0.221584  CPU:    0.351
 Line minimisation2
 ALPHA BEFORE:   0.32133265867034955     
  ** Opt : line minimisation
left   ...       0.00000000    -469.25770205
centre ...       0.08033316    -469.26662028
right  ...       0.16066633    -469.27403634

left   ...       0.00000000    -469.25770205
centre ...       0.08033316    -469.26662028
right  ...       0.16066633    -469.27403634
new    ...       0.51709517    -469.29159458

__s__    ...       0.35642884

left   ...       0.08033316    -469.26662028
centre ...       0.16066633    -469.27403634
right  ...       0.51709517    -469.29159458
new    ...       0.58874412    -469.29194616

__s__    ...       0.07164895

 ALPHA AFTER:   0.58874412431613232     
  Cycle:     59 Energy:      -469.291946  Gnorm:      0.240261  CPU:    0.360
 Line minimisation2
 ALPHA BEFORE:   0.58874412431613232     
  ** Opt : line minimisation
left   ...       0.00000000    -469.29194616
centre ...       0.14718603    -469.30621431
right  ...       0.29437206    -469.30997597

left   ...       0.00000000    -469.29194616
centre ...       0.14718603    -469.30621431
right  ...       0.29437206    -469.30997597
new    ...       0.27347645    -469.31010059

__s__    ...      -0.02089561

 ALPHA AFTER:   0.27347645421941141     
  Cycle:     60 Energy:      -469.310101  Gnorm:      0.174612  CPU:    0.366
 Line minimisation2
 ALPHA BEFORE:   0.27347645421941141     
  ** Opt : line minimisation
left   ...       0.00000000    -469.31010059
centre ...       0.06836911    -469.31457446
right  ...       0.13673823    -469.31838300

left   ...       0.00000000    -469.31010059
centre ...       0.06836911    -469.31457446
right  ...       0.13673823    -469.31838300
new    ...       0.49391962    -469.32761252

__s__    ...       0.35718139

left   ...       0.06836911    -469.31457446
centre ...       0.13673823    -469.31838300
right  ...       0.49391962    -469.32761252
new    ...       0.49942201    -469.32762780

__s__    ...       0.00550239

 ALPHA AFTER:   0.49942200934143172     
  Cycle:     61 Energy:      -469.327628  Gnorm:      0.192089  CPU:    0.374
 Line minimisation2
 ALPHA BEFORE:   0.49942200934143172     
  ** Opt : line minimisation
left   ...       0.00000000    -469.32762780
centre ...       0.12485550    -469.33689867
right  ...       0.24971100    -469.34377305

left   ...       0.00000000    -469.32762780
centre ...       0.12485550    -469.33689867
right  ...       0.24971100    -469.34377305
new    ...       0.54543395    -469.35058044

__s__    ...       0.29572294

left   ...       0.12485550    -469.33689867
centre ...       0.24971100    -469.34377305
right  ...       0.54543395    -469.35058044
new    ...       0.54866114    -469.35058126

__s__    ...       0.00322719

 ALPHA AFTER:   0.54866114146542444     
  Cycle:     62 Energy:      -469.350581  Gnorm:      0.168232  CPU:    0.382
 Line minimisation2
 ALPHA BEFORE:   0.54866114146542444     
  ** Opt : line minimisation
left   ...       0.00000000    -469.35058126
centre ...       0.13716529    -469.35795556
right  ...       0.27433057    -469.36236334

left   ...       0.00000000    -469.35058126
centre ...       0.13716529    -469.35795556
right  ...       0.27433057    -469.36236334
new    ...       0.40955434    -469.36344578

__s__    ...       0.13522377

 ALPHA AFTER:   0.40955433683477599     
  Cycle:     63 Energy:      -469.363446  Gnorm:      0.162882  CPU:    0.389
 Line minimisation2
 ALPHA BEFORE:   0.40955433683477599     
  ** Opt : line minimisation
left   ...       0.00000000    -469.36344578
centre ...       0.10238858    -469.36871414
right  ...       0.20477717    -469.37277102

left   ...       0.00000000    -469.36344578
centre ...       0.10238858    -469.36871414
right  ...       0.20477717    -469.37277102
new    ...       0.49645428    -469.37727372

__s__    ...       0.29167712

left   ...       0.10238858    -469.36871414
centre ...       0.20477717    -469.37277102
right  ...       0.49645428    -469.37727372
new    ...       0.47638049    -469.37729444

__s__    ...      -0.02007379

 ALPHA AFTER:   0.47638048905525537     
  Cycle:     64 Energy:      -469.377294  Gnorm:      0.152494  CPU:    0.397
 Line minimisation2
 ALPHA BEFORE:   0.47638048905525537     
  ** Opt : line minimisation
left   ...       0.00000000    -469.37729444
centre ...       0.11909512    -469.38311632
right  ...       0.23819024    -469.38755639

left   ...       0.00000000    -469.37729444
centre ...       0.11909512    -469.38311632
right  ...       0.23819024    -469.38755639
new    ...       0.56132010    -469.39420296

__s__    ...       0.32312986

left   ...       0.11909512    -469.38311632
centre ...       0.23819024    -469.38755639
right  ...       0.56132010    -469.39420296
new    ...       0.67189814    -469.39443521

__s__    ...       0.11057804

 ALPHA AFTER:   0.67189814311261709     
  Cycle:     65 Energy:      -469.394435  Gnorm:      0.165681  CPU:    0.405
 Line minimisation2
 ALPHA BEFORE:   0.67189814311261709     
  ** Opt : line minimisation
left   ...       0.00000000    -469.39443521
centre ...       0.16797454    -469.40316024
right  ...       0.33594907    -469.40915074

left   ...       0.00000000    -469.39443521
centre ...       0.16797454    -469.40316024
right  ...       0.33594907    -469.40915074
new    ...       0.61994025    -469.41289505

__s__    ...       0.28399118

left   ...       0.16797454    -469.40316024
centre ...       0.33594907    -469.40915074
right  ...       0.61994025    -469.41289505
new    ...       0.61049326    -469.41289677

__s__    ...      -0.00944699

 ALPHA AFTER:   0.61049326270092652     
  Cycle:     66 Energy:      -469.412897  Gnorm:      0.205260  CPU:    0.413
 Line minimisation2
 ALPHA BEFORE:   0.61049326270092652     
  ** Opt : line minimisation
left   ...       0.00000000    -469.41289677
centre ...       0.15262332    -469.42526010
right  ...       0.30524663    -469.43253865

left   ...       0.00000000    -469.41289677
centre ...       0.15262332    -469.42526010
right  ...       0.30524663    -469.43253865
new    ...       0.44740611    -469.43487323

__s__    ...       0.14215948

 ALPHA AFTER:   0.44740610705033973     
  Cycle:     67 Energy:      -469.434873  Gnorm:      0.172187  CPU:    0.420
 Line minimisation2
 ALPHA BEFORE:   0.44740610705033973     
  ** Opt : line minimisation
left   ...       0.00000000    -469.43487323
centre ...       0.11185153    -469.44147190
right  ...       0.22370305    -469.44600544

left   ...       0.00000000    -469.43487323
centre ...       0.11185153    -469.44147190
right  ...       0.22370305    -469.44600544
new    ...       0.41332167    -469.44892322

__s__    ...       0.18961862

left   ...       0.11185153    -469.44147190
centre ...       0.22370305    -469.44600544
right  ...       0.41332167    -469.44892322
new    ...       0.41075915    -469.44892407

__s__    ...      -0.00256252

 ALPHA AFTER:   0.41075914777728351     
  Cycle:     68 Energy:      -469.448924  Gnorm:      0.128028  CPU:    0.428
 Line minimisation2
 ALPHA BEFORE:   0.41075914777728351     
  ** Opt : line minimisation
left   ...       0.00000000    -469.44892407
centre ...       0.10268979    -469.45218842
right  ...       0.20537957    -469.45422581

left   ...       0.00000000    -469.44892407
centre ...       0.10268979    -469.45218842
right  ...       0.20537957    -469.45422581
new    ...       0.32455557    -469.45505835

__s__    ...       0.11917600

 ALPHA AFTER:   0.32455556990528517     
  Cycle:     69 Energy:      -469.455058  Gnorm:      0.098198  CPU:    0.435
  ** Hessian calculated **
 Line minimisation2
 ALPHA BEFORE:    1.0000000000000000     
  ** Opt : line minimisation
left   ...       0.00000000    -469.45505835
centre ...       0.25000000    -469.45954889
right  ...       0.50000000    -469.46370391

left   ...       0.00000000    -469.45505835
centre ...       0.25000000    -469.45954889
right  ...       0.50000000    -469.46370391
new    ...       1.50000000    -469.47851883

__s__    ...       1.00000000

left   ...       0.25000000    -469.45954889
centre ...       0.50000000    -469.46370391
right  ...       1.50000000    -469.47851883
new    ...       2.50000000    -469.49053465

__s__    ...       1.00000000

left   ...       0.50000000    -469.46370391
centre ...       1.50000000    -469.47851883
right  ...       2.50000000    -469.49053465
new    ...       3.50000000    -469.50001295

__s__    ...       1.00000000

left   ...       1.50000000    -469.47851883
centre ...       2.50000000    -469.49053465
right  ...       3.50000000    -469.50001295
new    ...       4.50000000    -469.50577546

__s__    ...       1.00000000

 ALPHA AFTER:    4.5000000000000000     
  Cycle:     70 Energy:      -469.505775  Gnorm:      0.124965  CPU:    0.448
 Line minimisation2
 ALPHA BEFORE:    3.0000000000000000     
  ** Opt : line minimisation
left   ...       0.00000000    -469.50577546
centre ...       0.75000000    -469.52787464
right  ...       1.50000000    -469.53724020

left   ...       0.00000000    -469.50577546
centre ...       0.75000000    -469.52787464
right  ...       1.50000000    -469.53724020
new    ...       1.67662348    -469.53745561

__s__    ...       0.17662348

 ALPHA AFTER:    1.6766234764790651     
  Cycle:     71 Energy:      -469.537456  Gnorm:      0.101605  CPU:    0.455
  ** Hessian calculated **
 Line minimisation2
 ALPHA BEFORE:    1.0000000000000000     
  ** Opt : line minimisation
left   ...       0.00000000    -469.53745561
centre ...       0.25000000    -469.54277176
right  ...       0.50000000    -469.54650614

left   ...       0.00000000    -469.53745561
centre ...       0.25000000    -469.54277176
right  ...       0.50000000    -469.54650614
new    ...       0.96522138    -469.55087946

__s__    ...       0.46522138

left   ...       0.25000000    -469.54277176
centre ...       0.50000000    -469.54650614
right  ...       0.96522138    -469.55087946
new    ...       1.33974762    -469.55111564

__s__    ...       0.37452624

 ALPHA AFTER:    1.3397476179991195     
  Cycle:     72 Energy:      -469.551116  Gnorm:      0.104799  CPU:    0.466
 Line minimisation2
 ALPHA BEFORE:   0.89316507866607975     
  ** Opt : line minimisation
left   ...       0.00000000    -469.55111564
centre ...       0.22329127    -469.55271379
right  ...       0.44658254    -469.55320212

left   ...       0.00000000    -469.55111564
centre ...       0.22329127    -469.55271379
right  ...       0.44658254    -469.55320212
new    ...       0.43318681    -469.55321610

__s__    ...      -0.01339573

 ALPHA AFTER:   0.43318681054384822     
  Cycle:     73 Energy:      -469.553216  Gnorm:      0.126358  CPU:    0.472
 Line minimisation2
 ALPHA BEFORE:   0.28879120702923217     
  ** Opt : line minimisation
left   ...       0.00000000    -469.55321610
centre ...       0.07219780    -469.55664624
right  ...       0.14439560    -469.56008629

left   ...       0.00000000    -469.55321610
centre ...       0.07219780    -469.55664624
right  ...       0.14439560    -469.56008629
new    ...       0.28879121    -469.56645445

__s__    ...       0.14439560

left   ...       0.07219780    -469.55664624
centre ...       0.14439560    -469.56008629
right  ...       0.28879121    -469.56645445
new    ...       1.28879121    -469.58846039

__s__    ...       1.00000000

left   ...       0.14439560    -469.56008629
centre ...       0.28879121    -469.56645445
right  ...       1.28879121    -469.58846039
new    ...       1.35865120    -469.58817613

__s__    ...       0.06985999

 ALPHA AFTER:    1.2887912070292322     
  Cycle:     74 Energy:      -469.588460  Gnorm:      0.172942  CPU:    0.482
 Line minimisation2
 ALPHA BEFORE:    2.2283493303580442     
  ** Opt : line minimisation
left   ...       0.00000000    -469.58846039
centre ...       0.55708733    -469.60738886
right  ...       1.11417467    -469.60726643

left   ...       0.00000000    -469.58846039
centre ...       0.55708733    -469.60738886
right  ...       1.11417467    -469.60726643
new    ...       0.83205062    -469.60969558

__s__    ...      -0.28212404

 ALPHA AFTER:   0.83205062055027323     
  Cycle:     75 Energy:      -469.609696  Gnorm:      0.107313  CPU:    0.488
 Line minimisation2
 ALPHA BEFORE:   0.75599541759558186     
  ** Opt : line minimisation
left   ...       0.00000000    -469.60969558
centre ...       0.18899885    -469.61403008
right  ...       0.37799771    -469.61726555

left   ...       0.00000000    -469.60969558
centre ...       0.18899885    -469.61403008
right  ...       0.37799771    -469.61726555
new    ...       0.83990019    -469.62096859

__s__    ...       0.46190248

left   ...       0.18899885    -469.61403008
centre ...       0.37799771    -469.61726555
right  ...       0.83990019    -469.62096859
new    ...       0.89559945    -469.62099984

__s__    ...       0.05569926

 ALPHA AFTER:   0.89559944675445036     
  Cycle:     76 Energy:      -469.621000  Gnorm:      0.071605  CPU:    0.496
 Line minimisation2
 ALPHA BEFORE:    3.0777228144652300     
  ** Opt : line minimisation
left   ...       0.00000000    -469.62099984
centre ...       0.76943070    -469.62494522
right  ...       1.53886141    -469.61404312

left   ...       0.00000000    -469.62099984
centre ...       0.76943070    -469.62494522
right  ...       1.53886141    -469.61404312
new    ...       0.58917408    -469.62538922

__s__    ...      -0.94968732

left   ...       0.00000000    -469.62099984
centre ...       0.58917408    -469.62538922
right  ...       0.76943070    -469.62494522
new    ...       0.58371077    -469.62538999

__s__    ...      -0.00546331

 ALPHA AFTER:   0.58371077209897004     
  Cycle:     77 Energy:      -469.625390  Gnorm:      0.055592  CPU:    0.505
 Line minimisation2
 ALPHA BEFORE:   0.38914051473264666     
  ** Opt : line minimisation
left   ...       0.00000000    -469.62538999
centre ...       0.09728513    -469.62573057
right  ...       0.19457026    -469.62603230

left   ...       0.00000000    -469.62538999
centre ...       0.09728513    -469.62573057
right  ...       0.19457026    -469.62603230
new    ...       0.90162886    -469.62729163

__s__    ...       0.70705860

left   ...       0.09728513    -469.62573057
centre ...       0.19457026    -469.62603230
right  ...       0.90162886    -469.62729163
new    ...       1.09059119    -469.62721177

__s__    ...       0.18896233

 ALPHA AFTER:   0.90162885530344217     
  Cycle:     78 Energy:      -469.627292  Gnorm:      0.067799  CPU:    0.513
 Line minimisation2
 ALPHA BEFORE:   0.60108590353562807     
  ** Opt : line minimisation
left   ...       0.00000000    -469.62729163
centre ...       0.15027148    -469.62782265
right  ...       0.30054295    -469.62826144

left   ...       0.00000000    -469.62729163
centre ...       0.15027148    -469.62782265
right  ...       0.30054295    -469.62826144
new    ...       0.94033640    -469.62891340

__s__    ...       0.63979344

left   ...       0.15027148    -469.62782265
centre ...       0.30054295    -469.62826144
right  ...       0.94033640    -469.62891340
new    ...       0.83219662    -469.62872227

__s__    ...      -0.10813978

 ALPHA AFTER:   0.94033639530780344     
  Cycle:     79 Energy:      -469.628913  Gnorm:      0.079427  CPU:    0.521
 Line minimisation2
 ALPHA BEFORE:   0.62689093020520215     
  ** Opt : line minimisation
left   ...       0.00000000    -469.62891340
centre ...       0.15672273    -469.63006652
right  ...       0.31344547    -469.63071653

left   ...       0.00000000    -469.62891340
centre ...       0.15672273    -469.63006652
right  ...       0.31344547    -469.63071653
new    ...       0.43756507    -469.63110752

__s__    ...       0.12411960

 ALPHA AFTER:   0.43756506662923123     
  Cycle:     80 Energy:      -469.631108  Gnorm:      0.083007  CPU:    0.528
 Line minimisation2
 ALPHA BEFORE:   0.29171004441948750     
  ** Opt : line minimisation
left   ...       0.00000000    -469.63110752
centre ...       0.07292751    -469.63208209
right  ...       0.14585502    -469.63330805

left   ...       0.00000000    -469.63110752
centre ...       0.07292751    -469.63208209
right  ...       0.14585502    -469.63330805
new    ...       0.29171004    -469.63463602

__s__    ...       0.14585502

left   ...       0.07292751    -469.63208209
centre ...       0.14585502    -469.63330805
right  ...       0.29171004    -469.63463602
new    ...       0.34802842    -469.63444455

__s__    ...       0.05631838

 ALPHA AFTER:   0.29171004441948745     
  Cycle:     81 Energy:      -469.634636  Gnorm:      0.079264  CPU:    0.536
  ** Hessian calculated **
 Line minimisation2
 ALPHA BEFORE:    1.0000000000000000     
  ** Opt : line minimisation
left   ...       0.00000000    -469.63463602
centre ...       0.25000000    -469.63981482
right  ...       0.50000000    -469.64369270

left   ...       0.00000000    -469.63463602
centre ...       0.25000000    -469.63981482
right  ...       0.50000000    -469.64369270
new    ...       1.12021349    -469.64526639

__s__    ...       0.62021349

 ALPHA AFTER:    1.1202134920902862     
  Cycle:     82 Energy:      -469.645266  Gnorm:      0.059054  CPU:    0.545
 Line minimisation2
 ALPHA BEFORE:    5.3097049011790602     
  ** Opt : line minimisation
left   ...       0.00000000    -469.64526639
centre ...       1.00000000    -469.64630664
right  ...       2.00000000    -469.63943750

left   ...       0.00000000    -469.64526639
centre ...       1.00000000    -469.64630664
right  ...       2.00000000    -469.63943750
new    ...       1.00000000    -469.64630664

__s__    ...      -1.00000000

 ALPHA AFTER:    1.0000000000000000     
  Cycle:     83 Energy:      -469.646307  Gnorm:      0.041530  CPU:    0.552
 Line minimisation2
 ALPHA BEFORE:   0.66666666666666663     
  ** Opt : line minimisation
left   ...       0.00000000    -469.64630664
centre ...       0.16666667    -469.64702026
right  ...       0.33333333    -469.64746667

left   ...       0.00000000    -469.64630664
centre ...       0.16666667    -469.64702026
right  ...       0.33333333    -469.64746667
new    ...       0.52844672    -469.64788628

__s__    ...       0.19511339

left   ...       0.16666667    -469.64702026
centre ...       0.33333333    -469.64746667
right  ...       0.52844672    -469.64788628
new    ...       1.16784144    -469.64648781

__s__    ...       0.63939472

left   ...       0.33333333    -469.64746667
centre ...       0.52844672    -469.64788628
right  ...       1.16784144    -469.64648781
new    ...       0.63775749    -469.64803522

__s__    ...      -0.53008395

left   ...       0.52844672    -469.64788628
centre ...       0.63775749    -469.64803522
right  ...       1.16784144    -469.64648781
new    ...       0.68483687    -469.64798988

__s__    ...       0.04707938

 ALPHA AFTER:   0.63775749162256923     
  Cycle:     84 Energy:      -469.648035  Gnorm:      0.022518  CPU:    0.563
 Line minimisation2
 ALPHA BEFORE:    3.0399963243549570     
  ** Opt : line minimisation
left   ...       0.00000000    -469.64803522
centre ...       0.75999908    -469.64833508
right  ...       1.51999816    -469.64823453

left   ...       0.00000000    -469.64803522
centre ...       0.75999908    -469.64833508
right  ...       1.51999816    -469.64823453
new    ...       0.94915048    -469.64834433

__s__    ...      -0.57084768

left   ...       0.75999908    -469.64833508
centre ...       0.94915048    -469.64834433
right  ...       1.51999816    -469.64823453
new    ...       0.93155679    -469.64834456

__s__    ...      -0.01759369

 ALPHA AFTER:   0.93155679408313041     
  Cycle:     85 Energy:      -469.648345  Gnorm:      0.002842  CPU:    0.571
 Line minimisation2
 ALPHA BEFORE:   0.68114349285574116     
  ** Opt : line minimisation
left   ...       0.00000000    -469.64834456
centre ...       0.17028587    -469.64835759
right  ...       0.34057175    -469.64836550

left   ...       0.00000000    -469.64834456
centre ...       0.17028587    -469.64835759
right  ...       0.34057175    -469.64836550
new    ...       0.51956466    -469.64836825

__s__    ...       0.17899291

 ALPHA AFTER:   0.51956465786281314     
  Cycle:     86 Energy:      -469.648368  Gnorm:      0.002116  CPU:    0.577
 Line minimisation2
 ALPHA BEFORE:    2.9504332307363828     
  ** Opt : line minimisation
left   ...       0.00000000    -469.64836825
centre ...       0.73760831    -469.64837269
right  ...       1.47521662    -469.64837044

left   ...       0.00000000    -469.64836825
centre ...       0.73760831    -469.64837269
right  ...       1.47521662    -469.64837044
new    ...       0.85809161    -469.64837278

__s__    ...      -0.61712501

 ALPHA AFTER:   0.85809160526678541     
  Cycle:     87 Energy:      -469.648373  Gnorm:      0.000668  CPU:    0.584
 Line minimisation2
 ALPHA BEFORE:    5.0167990623180883     
  ** Opt : line minimisation
left   ...       0.00000000    -469.64837278
centre ...       1.00000000    -469.64837346
right  ...       2.00000000    -469.64837252

left   ...       0.00000000    -469.64837278
centre ...       1.00000000    -469.64837346
right  ...       2.00000000    -469.64837252
new    ...       1.00000000    -469.64837346

__s__    ...      -1.00000000

 ALPHA AFTER:    1.0000000000000000     
  Cycle:     88 Energy:      -469.648373  Gnorm:      0.000454  CPU:    0.591
 Line minimisation2
 ALPHA BEFORE:    1.1474176333781076     
  ** Opt : line minimisation
left   ...       0.00000000    -469.64837346
centre ...       0.28685441    -469.64837354
right  ...       0.57370882    -469.64837358

left   ...       0.00000000    -469.64837346
centre ...       0.28685441    -469.64837354
right  ...       0.57370882    -469.64837358
new    ...       0.73466454    -469.64837359

__s__    ...       0.16095573

 ALPHA AFTER:   0.73466454188904695     


  **** Optimisation achieved ****


  Final energy =    -469.64837359 eV
  Final Gnorm  =       0.00030263

  Components of energy : 

--------------------------------------------------------------------------------
  Interatomic potentials     =          75.75955118 eV    
  Monopole - monopole (real) =        -293.07877815 eV    
  Monopole - monopole (recip)=        -252.32914661 eV    
  Monopole - monopole (total)=        -545.40792476 eV    
--------------------------------------------------------------------------------
  Total lattice energy       =        -469.64837359 eV    
--------------------------------------------------------------------------------
  Total lattice energy       =          -45313.8888 kJ/(mole unit cells)
--------------------------------------------------------------------------------

  Final fractional coordinates of atoms :

--------------------------------------------------------------------------------
   No.  Atomic        x           y          z          Radius
        Label       (Frac)      (Frac)     (Frac)       (Angs) 
--------------------------------------------------------------------------------
     1  O     c     0.000000    0.333330    0.833330    0.000000
     2  O     c     0.763042    0.460030    0.248971    0.000000
     3  O     c     0.387836    0.551823    0.329111    0.000000
     4  O     c     0.984376    0.961672    0.147024    0.000000
     5  O     c     0.351016    0.266337    0.124311    0.000000
     6  O     c     0.299897    0.043834    0.877757    0.000000
     7  O     c     0.155540    0.794027    0.660336    0.000000
     8  O     c     0.583547    0.804729    0.841200    0.000000
     9  O     c     0.470632    0.139582    0.506169    0.000000
    10  Sr    c     0.616173    0.863300    0.161619    0.000000
    11  Sr    c     0.878146    0.611942    0.900958    0.000000
    12  Sr    c     0.061601    0.579691    0.464207    0.000000
    13  Ti    c     0.497901    0.357224    0.301064    0.000000
    14  Ti    c     0.146355    0.156544    0.991931    0.000000
    15  Ti    c     0.380926    0.939901    0.711555    0.000000
--------------------------------------------------------------------------------

  Final Cartesian lattice vectors (Angstroms) :

        6.333019   -0.529028   -0.197253
       -0.529028    7.249347    0.867758
       -0.394505    1.735517    7.283740


  Final cell parameters and derivatives :

--------------------------------------------------------------------------------
       a            6.358137 Angstrom     dE/de1(xx)     0.003187 eV/strain
       b            7.320239 Angstrom     dE/de2(yy)     0.004023 eV/strain
       c            7.498034 Angstrom     dE/de3(zz)     0.007552 eV/strain
       alpha       69.624078 Degrees      dE/de4(yz)    -0.001738 eV/strain
       beta        95.842972 Degrees      dE/de5(xz)     0.001666 eV/strain
       gamma       99.094335 Degrees      dE/de6(xy)    -0.000121 eV/strain
--------------------------------------------------------------------------------

  Primitive cell volume =           322.620282 Angs**3

  Density of cell =      2.833490 g/cm**3

  Non-primitive cell volume =           322.620282 Angs**3


  Final internal derivatives :

--------------------------------------------------------------------------------
   No.  Atomic          a             b             c           Radius
        Label          (eV)          (eV)          (eV)        (eV/Angs)
--------------------------------------------------------------------------------
      1 O     c       0.000000      0.000000      0.000000      0.000000
      2 O     c       0.001173     -0.000403      0.000234      0.000000
      3 O     c       0.000510     -0.000169     -0.000420      0.000000
      4 O     c       0.000585     -0.000307      0.000402      0.000000
      5 O     c      -0.000391     -0.001103     -0.003307      0.000000
      6 O     c      -0.000128      0.001093      0.001687      0.000000
      7 O     c      -0.001606     -0.000687     -0.000558      0.000000
      8 O     c       0.003071     -0.002788      0.001242      0.000000
      9 O     c       0.000785     -0.000585      0.001012      0.000000
     10 Sr    c       0.000263      0.000616      0.001712      0.000000
     11 Sr    c       0.000284      0.000292      0.000085      0.000000
     12 Sr    c       0.000784     -0.000618     -0.001088      0.000000
     13 Ti    c       0.000352      0.007018      0.001235      0.000000
     14 Ti    c       0.000289     -0.003494     -0.000196      0.000000
     15 Ti    c      -0.002913     -0.001121     -0.000121      0.000000
--------------------------------------------------------------------------------
  Maximum abs         0.003071      0.007018      0.003307      0.000000
--------------------------------------------------------------------------------


  Time to end of optimisation =       0.5974 seconds

 Exiting ------OPTIONS------

  Peak dynamic memory used =       0.60 MB 


  Timing analysis for GULP :

--------------------------------------------------------------------------------
  Task / Subroutine                                          Time (Seconds)
--------------------------------------------------------------------------------
  Calculation of reciprocal space energy and derivatives          0.0444
  Calculation of real space energy and derivatives                0.5408
  Calculation of matrix inversion                                 0.0001
  Global summation overhead                                       0.0003
--------------------------------------------------------------------------------
  Total CPU time                                                  0.5975
--------------------------------------------------------------------------------


  Job Finished at 12:07.07  4th February   2020                               

