********************************************************************************
*                       GENERAL UTILITY LATTICE PROGRAM                        *
*                                 Julian Gale                                  *
*                       Curtin Institute for Computation                       *
*                           Department of Chemistry                            *
*                    Curtin University, Western Australia                      *
********************************************************************************
* Version = 5.1.1 * Last modified =  25th August 2019                          *
********************************************************************************
*  optimise     - perform optimisation run                                     *
*  conp         - constant pressure calculation                                *
*  nosymmetry   - turn off symmetry after initial structure generation         *
*  full         - generate full unit cell when symmetry is removed             *
*  conjugate    - use conjugate gradients minimiser                            *
********************************************************************************
* ASE calculation                                                              *
********************************************************************************


  Job Started  at 16:31.48  3rd February   2020                               

  Number of CPUs =     1


  Total number of configurations input =      1

********************************************************************************
*  Input for Configuration =   1                                               *
********************************************************************************

  Formula = O9Sr3Ti3                                                    

  Number of irreducible atoms/shells =      15


  Total number atoms/shells =      15

  Dimensionality = 3               :  Bulk   



  Cartesian lattice vectors (Angstroms) :

        4.000000    0.000000    0.000000
        0.000000    6.000000    0.000000
        0.000000    0.000000   12.000000

  Cell parameters (Angstroms/Degrees):

  a =       4.0000    alpha =  90.0000
  b =       6.0000    beta  =  90.0000
  c =      12.0000    gamma =  90.0000

  Initial cell volume =         288.000000 Angs**3

  Temperature of configuration =  0.000     K 

  Pressure of configuration =         0.000 GPa 

  Fractional coordinates of asymmetric unit :

--------------------------------------------------------------------------------
   No.  Atomic       x           y          z         Charge      Occupancy
        Label      (Frac)      (Frac)     (Frac)        (e)         (Frac)  
--------------------------------------------------------------------------------
      1 O     c    0.000000    0.333330    0.000000    -2.00000    1.000000    
      2 O     c    0.000000 *  0.666670 *  0.166670 *  -2.00000    1.000000    
      3 O     c    0.500000 *  0.666670 *  0.333330 *  -2.00000    1.000000    
      4 O     c    0.000000 *  0.666670 *  0.666670 *  -2.00000    1.000000    
      5 O     c    0.000000 *  0.333330 *  0.166670 *  -2.00000    1.000000    
      6 O     c    0.000000 *  0.666670 *  0.833330 *  -2.00000    1.000000    
      7 O     c    0.500000 *  0.666670 *  0.666670 *  -2.00000    1.000000    
      8 O     c    0.000000 *  0.333330 *  0.500000 *  -2.00000    1.000000    
      9 O     c    0.000000 *  0.000000 *  0.500000 *  -2.00000    1.000000    
     10 Sr    c    0.750000 *  0.500000 *  0.250000 *   2.00000    1.000000    
     11 Sr    c    0.750000 *  0.500000 *  0.916670 *   2.00000    1.000000    
     12 Sr    c    0.750000 *  0.833330 *  0.750000 *   2.00000    1.000000    
     13 Ti    c    0.750000 *  0.833330 *  0.083330 *   4.00000    1.000000    
     14 Ti    c    0.250000 *  0.500000 *  0.916670 *   4.00000    1.000000    
     15 Ti    c    0.250000 *  0.166670 *  0.250000 *   4.00000    1.000000    
--------------------------------------------------------------------------------



********************************************************************************
*  General input information                                                   *
********************************************************************************

  Species output for all configurations : 

--------------------------------------------------------------------------------
  Species    Type    Atomic    Atomic    Charge       Radii (Angs)     Library
                     Number     Mass       (e)     Cova   Ionic  VDW   Symbol
--------------------------------------------------------------------------------
    O        Core        8      16.00  -2.000000   0.730  0.000  1.360          
    Sr       Core       38      87.62   2.000000   1.120  0.000  1.670          
    Ti       Core       22      47.88   4.000000   1.470  0.000  2.190          
--------------------------------------------------------------------------------


  Lattice summation method               =    Ewald          (3-D)
                                         =    Parry          (2-D)
                                         =    Saunders et al (1-D)
  Accuracy factor for lattice sums       =   12.000


  Time limit = Infinity

  Maximum range for interatomic potentials =    100000.000000 Angstroms

  General interatomic potentials :

--------------------------------------------------------------------------------
Atom  Types   Potential      Parameter       Value         Units   Cutoffs(Ang)
  1     2                                                            Min /  Max 
--------------------------------------------------------------------------------
O    c Sr   c Buckingham    Buckingham A     1952.3900    eV        0.000 10.000
                            Buckingham rho  0.33685000    Ang       
                            Buckingham C     19.220000    eV*Ang^6  
--------------------------------------------------------------------------------
O    c Ti   c Buckingham    Buckingham A     4590.7279    eV        0.000 10.000
                            Buckingham rho  0.26100000    Ang       
                            Buckingham C     0.0000000    eV*Ang^6  
--------------------------------------------------------------------------------
O    c O    c Buckingham    Buckingham A     1388.7700    eV        0.000 10.000
                            Buckingham rho  0.36262000    Ang       
                            Buckingham C     175.00000    eV*Ang^6  
--------------------------------------------------------------------------------
 Calling ------OPTIONS------

********************************************************************************
*  Output for configuration   1                                                *
********************************************************************************


  Components of energy : 

--------------------------------------------------------------------------------
  Interatomic potentials     =         128.82078291 eV    
  Monopole - monopole (real) =         -97.95825989 eV    
  Monopole - monopole (recip)=        -103.78411368 eV    
  Monopole - monopole (total)=        -201.74237357 eV    
--------------------------------------------------------------------------------
  Total lattice energy       =         -72.92159066 eV    
--------------------------------------------------------------------------------
  Total lattice energy       =           -7035.8188 kJ/(mole unit cells)
--------------------------------------------------------------------------------


  Number of variables =       48

  Maximum number of calculations  =          1000
  Maximum Hessian update interval =            10
  Maximum step size               =   1.000000000
  Maximum parameter tolerance     =   0.000010000
  Maximum function  tolerance     =   0.000010000
  Maximum gradient  tolerance     =   0.001000000
  Maximum gradient  component     =   0.010000000

  Cell parameters to be optimised using strains

  Conjugate gradient optimiser to be used

  Lower half triangular hessian to be used

  Minimiser to switch to BFGS with exact hessian
  When gradient norm is less than     0.100000

  Start of bulk optimisation :

  Cycle:      0 Energy:       -72.921591  Gnorm:     38.397228  CPU:    0.013
 Perform trimming
 Line minimisation2
 ALPHA BEFORE:    1.0000000000000000     
  ** Opt : line minimisation
left   ...       0.00000000     -72.92159066
centre ...       0.25000000    -157.00816721
right  ...       0.50000000    -213.33434108

left   ...       0.00000000     -72.92159066
centre ...       0.25000000    -157.00816721
right  ...       0.50000000    -213.33434108
new    ...       0.88225285    -278.39027088

__s__    ...       0.38225285

left   ...       0.25000000    -157.00816721
centre ...       0.50000000    -213.33434108
right  ...       0.88225285    -278.39027088
new    ...       1.66732028    -740.56857372

__s__    ...       0.78506743

left   ...       0.50000000    -213.33434108
centre ...       0.88225285    -278.39027088
right  ...       1.66732028    -740.56857372
new    ...       2.66732028    -210.16189622

__s__    ...       1.00000000

left   ...       0.88225285    -278.39027088
centre ...       1.66732028    -740.56857372
right  ...       2.66732028    -210.16189622
new    ...       1.74430347   -1682.88378035

__s__    ...      -0.92301681

left   ...       1.66732028    -740.56857372
centre ...       1.74430347   -1682.88378035
right  ...       2.66732028    -210.16189622
new    ...       2.14815277  -37162.90748606

__s__    ...       0.40384930

left   ...       1.74430347   -1682.88378035
centre ...       2.14815277  -37162.90748606
right  ...       2.66732028    -210.16189622
new    ...       2.20118160  -19558.49196144

__s__    ...       0.05302883

 ALPHA AFTER:    2.1481527699105571     
  Cycle:      1 Energy:    -37162.907486  Gnorm: 112304.643213  CPU:    0.028
 Perform trimming
 Line minimisation2
 ALPHA BEFORE:    2.1481527699105571     
  ** Opt : line minimisation
left   ...       0.00000000  -37162.90748606
centre ...       0.53703819    -160.26053866
right  ...      -0.53703819    -307.10421332

left   ...      -0.53703819    -307.10421332
centre ...       0.00000000  -37162.90748606
right  ...       0.53703819    -160.26053866
new    ...      -0.00053386  -37470.13430801

__s__    ...       0.53650433

left   ...      -0.53703819    -307.10421332
centre ...      -0.00053386  -37470.13430801
right  ...       0.00000000  -37162.90748606
new    ...      -0.23993750   -2988.94930753

__s__    ...      -0.23940363

left   ...      -0.23993750   -2988.94930753
centre ...      -0.00053386  -37470.13430801
right  ...       0.00000000  -37162.90748606
new    ...      -0.09622060  -49144.80163844

__s__    ...       0.14371690

left   ...      -0.23993750   -2988.94930753
centre ...      -0.09622060  -49144.80163844
right  ...      -0.00053386  -37470.13430801
new    ...      -0.08133256  -56199.88382900

__s__    ...       0.01488803

left   ...      -0.09622060  -49144.80163844
centre ...      -0.08133256  -56199.88382900
right  ...      -0.00053386  -37470.13430801
new    ...      -0.05664911  -60808.44289677

__s__    ...       0.02468345

left   ...      -0.08133256  -56199.88382900
centre ...      -0.05664911  -60808.44289677
right  ...      -0.00053386  -37470.13430801
new    ...      -0.05647384  -60801.42106483

__s__    ...       0.00017527

 ALPHA AFTER:    5.6649114647898201E-002
  Cycle:      2 Energy:    -60808.442897  Gnorm: 186371.148687  CPU:    0.037
 Perform trimming
 Line minimisation2
 ALPHA BEFORE:    5.6649114647898201E-002
  ** Opt : line minimisation
left   ...       0.00000000  -60808.44289677
centre ...       0.01416228 -194731.36746885
right  ...       0.02832456 -803241.95091101

left   ...       0.00000000  -60808.44289677
centre ...       0.01416228 -194731.36746885
right  ...       0.02832456 -803241.95091101
new    ...       0.05664911*****************

__s__    ...       0.02832456

left   ...       0.01416228 -194731.36746885
centre ...       0.02832456 -803241.95091101
right  ...       0.05664911*****************
new    ...       0.11329823-3477062.55339872

__s__    ...       0.05664911

left   ...       0.02832456 -803241.95091101
centre ...       0.05664911*****************
right  ...       0.11329823-3477062.55339872
new    ...       0.07136227*****************

__s__    ...      -0.04193596

left   ...       0.05664911*****************
centre ...       0.07136227*****************
right  ...       0.11329823-3477062.55339872
new    ...       0.08450705*****************

__s__    ...       0.01314478

left   ...       0.05664911*****************
centre ...       0.07136227*****************
right  ...       0.08450705*****************
new    ...       0.07452871*****************

__s__    ...      -0.00997834

left   ...       0.07136227*****************
centre ...       0.07452871*****************
right  ...       0.08450705*****************
new    ...       0.07702821*****************

__s__    ...       0.00249950

 ALPHA AFTER:    7.7028210148370108E-002
  Cycle:      3 Energy:-745716929.283138  Gnorm:**************  CPU:    0.044
 Perform trimming
 Line minimisation2
 ALPHA BEFORE:    7.7028210148370108E-002
  ** Opt : line minimisation
left   ...       0.00000000*****************
centre ...       0.01925705*****************
right  ...      -0.01925705-6411920.66079112

left   ...      -0.01925705-6411920.66079112
centre ...       0.00000000*****************
right  ...       0.01925705*****************
new    ...       0.00014570*****************

__s__    ...       0.01940275

left   ...       0.00000000*****************
centre ...       0.00014570*****************
right  ...       0.01925705*****************
new    ...       0.00720450*****************

__s__    ...       0.00705880

left   ...       0.00000000*****************
centre ...       0.00014570*****************
right  ...       0.00720450*****************
new    ...       0.00318019*****************

__s__    ...      -0.00402431

left   ...       0.00014570*****************
centre ...       0.00318019*****************
right  ...       0.00720450*****************
new    ...       0.00323304*****************

__s__    ...       0.00005285

left   ...       0.00014570*****************
centre ...       0.00318019*****************
right  ...       0.00323304*****************
new    ...       0.00312374*****************

__s__    ...      -0.00010929

left   ...       0.00014570*****************
centre ...       0.00312374*****************
right  ...       0.00318019*****************
new    ...       0.00313170*****************

__s__    ...       0.00000796

 ALPHA AFTER:    3.1317021880843277E-003
  Cycle:      4 Energy:-949842463.029734  Gnorm:**************  CPU:    0.051
 Perform trimming
 Line minimisation2
 ALPHA BEFORE:    3.1317021880843277E-003
  ** Opt : line minimisation
left   ...       0.00000000*****************
centre ...       0.00078293*****************
right  ...       0.00156585*****************

left   ...       0.00000000*****************
centre ...       0.00078293*****************
right  ...       0.00156585*****************
new    ...       0.00313170*****************

__s__    ...       0.00156585

left   ...       0.00078293*****************
centre ...       0.00156585*****************
right  ...       0.00313170*****************
new    ...       0.00626340*****************

__s__    ...       0.00313170

left   ...       0.00156585*****************
centre ...       0.00313170*****************
right  ...       0.00626340*****************
new    ...       0.00391772*****************

__s__    ...      -0.00234568

left   ...       0.00313170*****************
centre ...       0.00391772*****************
right  ...       0.00626340*****************
new    ...       0.00455923*****************

__s__    ...       0.00064151

left   ...       0.00313170*****************
centre ...       0.00391772*****************
right  ...       0.00455923*****************
new    ...       0.00391028*****************

__s__    ...      -0.00064895

left   ...       0.00391028*****************
centre ...       0.00391772*****************
right  ...       0.00455923*****************
new    ...       0.00397306*****************

__s__    ...       0.00006278

 ALPHA AFTER:    3.9730570118771949E-003
  Cycle:      5 Energy:*****************  Gnorm:**************  CPU:    0.060
 Perform trimming
 Line minimisation2
 ALPHA BEFORE:    3.9730570118771949E-003
  ** Opt : line minimisation
left   ...       0.00000000*****************
centre ...       0.00099326*****************
right  ...       0.00198653*****************

left   ...       0.00000000*****************
centre ...       0.00099326*****************
right  ...       0.00198653*****************
new    ...       0.00397306*****************

__s__    ...       0.00198653

left   ...       0.00099326*****************
centre ...       0.00198653*****************
right  ...       0.00397306*****************
new    ...       0.00244610*****************

__s__    ...      -0.00152696

left   ...       0.00099326*****************
centre ...       0.00198653*****************
right  ...       0.00244610*****************
new    ...       0.00174098*****************

__s__    ...      -0.00070511

left   ...       0.00099326*****************
centre ...       0.00174098*****************
right  ...       0.00198653*****************
new    ...       0.00170534*****************

__s__    ...      -0.00003565

left   ...       0.00170534*****************
centre ...       0.00174098*****************
right  ...       0.00198653*****************
new    ...       0.00181004*****************

__s__    ...       0.00010471

 ALPHA AFTER:    1.8100421643933806E-003
  Cycle:      6 Energy:*****************  Gnorm:**************  CPU:    0.066
 Perform trimming
 Line minimisation2
 ALPHA BEFORE:    1.8100421643933806E-003
  ** Opt : line minimisation
left   ...       0.00000000*****************
centre ...       0.00045251*****************
right  ...      -0.00045251*****************

left   ...      -0.00045251*****************
centre ...       0.00000000*****************
right  ...       0.00045251*****************
new    ...       0.00003500*****************

__s__    ...       0.00048751

left   ...       0.00000000*****************
centre ...       0.00003500*****************
right  ...       0.00045251*****************
new    ...       0.00021891*****************

__s__    ...       0.00018390

left   ...       0.00003500*****************
centre ...       0.00021891*****************
right  ...       0.00045251*****************
new    ...       0.00024308*****************

__s__    ...       0.00002417

left   ...       0.00003500*****************
centre ...       0.00021891*****************
right  ...       0.00024308*****************
new    ...       0.00015203*****************

__s__    ...      -0.00009105

left   ...       0.00015203*****************
centre ...       0.00021891*****************
right  ...       0.00024308*****************
new    ...       0.00019765*****************

__s__    ...       0.00004562

left   ...       0.00015203*****************
centre ...       0.00019765*****************
right  ...       0.00021891*****************
new    ...       0.00019511*****************

__s__    ...      -0.00000253

 ALPHA AFTER:    1.9764741748492799E-004
  Cycle:      7 Energy:*****************  Gnorm:**************  CPU:    0.072
 Perform trimming
 Line minimisation2
 ALPHA BEFORE:    1.9764741748492799E-004
  ** Opt : line minimisation
left   ...       0.00000000*****************
centre ...       0.00004941*****************
right  ...       0.00009882*****************

left   ...       0.00000000*****************
centre ...       0.00004941*****************
right  ...       0.00009882*****************
new    ...       0.00019765*****************

__s__    ...       0.00009882

left   ...       0.00004941*****************
centre ...       0.00009882*****************
right  ...       0.00019765*****************
new    ...       0.00012121*****************

__s__    ...      -0.00007644

left   ...       0.00004941*****************
centre ...       0.00009882*****************
right  ...       0.00012121*****************
new    ...       0.00009732*****************

__s__    ...      -0.00002389

left   ...       0.00009732*****************
centre ...       0.00009882*****************
right  ...       0.00012121*****************
new    ...       0.00010440*****************

__s__    ...       0.00000707

 ALPHA AFTER:    1.0439526841489694E-004
  Cycle:      8 Energy:*****************  Gnorm:**************  CPU:    0.078
 Perform trimming
 Line minimisation2
 ALPHA BEFORE:    1.0439526841489694E-004
  ** Opt : line minimisation
left   ...       0.00000000*****************
centre ...       0.00002610*****************
right  ...       0.00005220*****************

left   ...       0.00000000*****************
centre ...       0.00002610*****************
right  ...       0.00005220*****************
new    ...       0.00002466*****************

__s__    ...      -0.00002754

left   ...       0.00000000*****************
centre ...       0.00002466*****************
right  ...       0.00002610*****************
new    ...       0.00001420*****************

__s__    ...      -0.00001046

left   ...       0.00000000*****************
centre ...       0.00001420*****************
right  ...       0.00002466*****************
new    ...       0.00001334*****************

__s__    ...      -0.00000086

 ALPHA AFTER:    1.4198926226954833E-005
  Cycle:      9 Energy:*****************  Gnorm:**************  CPU:    0.082
 Perform trimming
 Line minimisation2
 ALPHA BEFORE:    1.4198926226954833E-005
  ** Opt : line minimisation
left   ...       0.00000000*****************
centre ...       0.00000355*****************
right  ...       0.00000710*****************

left   ...       0.00000000*****************
centre ...       0.00000355*****************
right  ...       0.00000710*****************
new    ...       0.00001420*****************

__s__    ...       0.00000710

left   ...       0.00000355*****************
centre ...       0.00000710*****************
right  ...       0.00001420*****************
new    ...       0.00002840*****************

__s__    ...       0.00001420

left   ...       0.00000710*****************
centre ...       0.00001420*****************
right  ...       0.00002840*****************
new    ...       0.00001772*****************

__s__    ...      -0.00001067

left   ...       0.00001420*****************
centre ...       0.00001772*****************
right  ...       0.00002840*****************
new    ...       0.00001977*****************

__s__    ...       0.00000205

left   ...       0.00001420*****************
centre ...       0.00001772*****************
right  ...       0.00001977*****************
new    ...       0.00001670*****************

__s__    ...      -0.00000308

left   ...       0.00001420*****************
centre ...       0.00001670*****************
right  ...       0.00001772*****************
new    ...       0.00001642*****************

__s__    ...      -0.00000028

 ALPHA AFTER:    1.6417109018819826E-005
  Cycle:     10 Energy:*****************  Gnorm:**************  CPU:    0.089
 Perform trimming
 Line minimisation2
 ALPHA BEFORE:    1.6417109018819826E-005
  ** Opt : line minimisation
left   ...       0.00000000*****************
centre ...       0.00000410*****************
right  ...       0.00000821*****************

left   ...       0.00000000*****************
centre ...       0.00000410*****************
right  ...       0.00000821*****************
new    ...       0.00000262*****************

__s__    ...      -0.00000559

left   ...       0.00000000*****************
centre ...       0.00000262*****************
right  ...       0.00000410*****************
new    ...       0.00000205*****************

__s__    ...      -0.00000056

 ALPHA AFTER:    2.0531972546691011E-006
  Cycle:     11 Energy:*****************  Gnorm:**************  CPU:    0.092
 Perform trimming
 Line minimisation2
 ALPHA BEFORE:    2.0531972546691011E-006
  ** Opt : line minimisation
left   ...       0.00000000*****************
centre ...       0.00000051*****************
right  ...       0.00000103*****************

left   ...       0.00000000*****************
centre ...       0.00000051*****************
right  ...       0.00000103*****************
new    ...       0.00000048*****************

__s__    ...      -0.00000055

 ALPHA AFTER:    4.7827355406642584E-007
  Cycle:     12 Energy:*****************  Gnorm:**************  CPU:    0.096
 Perform trimming
 Line minimisation2
 ALPHA BEFORE:    4.7827355406642584E-007
  ** Opt : line minimisation
left   ...       0.00000000*****************
centre ...       0.00000012*****************
right  ...       0.00000024*****************

 ALPHA AFTER:    1.1956838851660646E-007
  Cycle:     13 Energy:*****************  Gnorm:**************  CPU:    0.098
 Perform trimming
 Line minimisation2
 ALPHA BEFORE:    1.1956838851660646E-007
  ** Opt : line minimisation
left   ...       0.00000000*****************
centre ...       0.00000003*****************
right  ...       0.00000006*****************

 ALPHA AFTER:    5.9784194258303230E-008
  Cycle:     14 Energy:*****************  Gnorm:**************  CPU:    0.100
 Perform trimming
 Line minimisation2
 ALPHA BEFORE:    5.9784194258303230E-008
  ** Opt : line minimisation
left   ...       0.00000000*****************
centre ...       0.00000001*****************
right  ...       0.00000003*****************

 ALPHA AFTER:    2.9892097129151615E-008
  Cycle:     15 Energy:*****************  Gnorm:**************  CPU:    0.103
 Perform trimming
 Line minimisation2
 ALPHA BEFORE:    2.9892097129151615E-008
  ** Opt : line minimisation
left   ...       0.00000000*****************
centre ...       0.00000001*****************
right  ...       0.00000001*****************

 ALPHA AFTER:    1.4946048564575808E-008
  Cycle:     16 Energy:*****************  Gnorm:**************  CPU:    0.106
 Perform trimming
 Line minimisation2
 ALPHA BEFORE:    1.4946048564575808E-008
  ** Opt : line minimisation
left   ...       0.00000000*****************
centre ...       0.00000000*****************
right  ...       0.00000001*****************

 ALPHA AFTER:    7.4730242822879038E-009
  Cycle:     17 Energy:*****************  Gnorm:**************  CPU:    0.108
 Perform trimming
 Line minimisation2
 ALPHA BEFORE:    7.4730242822879038E-009
  ** Opt : line minimisation
left   ...       0.00000000*****************
centre ...       0.00000000*****************
right  ...       0.00000000*****************

 ALPHA AFTER:    3.7365121411439519E-009
  Cycle:     18 Energy:*****************  Gnorm:**************  CPU:    0.111
 Perform trimming
 Line minimisation2
 ALPHA BEFORE:    3.7365121411439519E-009
  ** Opt : line minimisation
left   ...       0.00000000*****************
centre ...       0.00000000*****************
right  ...       0.00000000*****************

 ALPHA AFTER:    1.8682560705719759E-009
  Cycle:     19 Energy:*****************  Gnorm:**************  CPU:    0.113
 Perform trimming
 Line minimisation2
 ALPHA BEFORE:    1.8682560705719759E-009
  ** Opt : line minimisation
left   ...       0.00000000*****************
centre ...       0.00000000*****************
right  ...       0.00000000*****************

 ALPHA AFTER:    9.3412803528598797E-010
  Cycle:     20 Energy:*****************  Gnorm:**************  CPU:    0.115
 Perform trimming
 Line minimisation2
 ALPHA BEFORE:    9.3412803528598797E-010
  ** Opt : line minimisation
left   ...       0.00000000*****************
centre ...       0.00000000*****************
right  ...       0.00000000*****************

 ALPHA AFTER:    4.6706401764299399E-010
  Cycle:     21 Energy:*****************  Gnorm:**************  CPU:    0.118
 Perform trimming
 Line minimisation2
 ALPHA BEFORE:    4.6706401764299399E-010
  ** Opt : line minimisation
left   ...       0.00000000*****************
centre ...       0.00000000*****************
right  ...       0.00000000*****************

 ALPHA AFTER:    2.3353200882149699E-010
  Cycle:     22 Energy:*****************  Gnorm:**************  CPU:    0.120
 Perform trimming
 Line minimisation2
 ALPHA BEFORE:    2.3353200882149699E-010
  ** Opt : line minimisation
left   ...       0.00000000*****************
centre ...       0.00000000*****************
right  ...       0.00000000*****************

 ALPHA AFTER:    1.1676600441074850E-010
  Cycle:     23 Energy:*****************  Gnorm:**************  CPU:    0.123
 Perform trimming
 Line minimisation2
 ALPHA BEFORE:    1.1676600441074850E-010
  ** Opt : line minimisation
left   ...       0.00000000*****************
centre ...       0.00000000*****************
right  ...       0.00000000*****************

 ALPHA AFTER:    5.8383002205374248E-011
  Cycle:     24 Energy:*****************  Gnorm:**************  CPU:    0.125
 Perform trimming
 Line minimisation2
 ALPHA BEFORE:    5.8383002205374248E-011
  ** Opt : line minimisation
left   ...       0.00000000*****************
centre ...       0.00000000*****************
right  ...       0.00000000*****************

 ALPHA AFTER:    2.9191501102687124E-011
  Cycle:     25 Energy:*****************  Gnorm:**************  CPU:    0.128
 Perform trimming
 Line minimisation2
 ALPHA BEFORE:    2.9191501102687124E-011
  ** Opt : line minimisation
left   ...       0.00000000*****************
centre ...       0.00000000    -322.16803365
right  ...      -0.00000000*****************

 ALPHA AFTER:   -7.2978752756717810E-012
  Cycle:     26 Energy:*****************  Gnorm:**************  CPU:    0.130
 Perform trimming
 Line minimisation2
 ALPHA BEFORE:    2.9191501102687124E-011
  ** Opt : line minimisation
left   ...       0.00000000*****************
centre ...       0.00000000    -322.16803365
right  ...      -0.00000000*****************

 ALPHA AFTER:   -7.2978752756717810E-012
  Cycle:     27 Energy:*****************  Gnorm:**************  CPU:    0.133
 Perform trimming
 Line minimisation2
 ALPHA BEFORE:    2.9191501102687124E-011
  ** Opt : line minimisation
left   ...       0.00000000*****************
centre ...       0.00000000    -322.16803365
right  ...      -0.00000000*****************

 ALPHA AFTER:   -7.2978752756717810E-012


  **** Conditions for a minimum have not been satisfied. However ****
  **** no lower point can be found - treat results with caution  ****
  **** unless gradient norm is small (less than 0.1)             ****


  Final energy = **************** eV
  Final Gnorm  = ****************

  Components of energy : 

--------------------------------------------------------------------------------
  Interatomic potentials     = ******************** eV    
  Monopole - monopole (real) =    47666629.57073073 eV    
  Monopole - monopole (recip)=        -210.30941488 eV    
  Monopole - monopole (total)=    47666419.26131585 eV    
--------------------------------------------------------------------------------
  Total lattice energy       = ******************** eV    
--------------------------------------------------------------------------------
  Total lattice energy       = ******************** kJ/(mole unit cells)
--------------------------------------------------------------------------------

  Final fractional coordinates of atoms :

--------------------------------------------------------------------------------
   No.  Atomic        x           y          z          Radius
        Label       (Frac)      (Frac)     (Frac)       (Angs) 
--------------------------------------------------------------------------------
     1  O     c     0.000000    0.333330    0.000000    0.000000
     2  O     c     0.016052    0.692197    0.033015    0.000000
     3  O     c     0.488980    0.685322    0.249312    0.000000
     4  O     c     0.010734    0.651294    0.701619    0.000000
     5  O     c     0.011577    0.281218    0.120893    0.000000
     6  O     c     0.016052    0.692197    0.033015    0.000000
     7  O     c     0.489266    0.651248    0.730536    0.000000
     8  O     c     0.000310    0.346412    0.443793    0.000000
     9  O     c     0.000291    0.986388    0.448181    0.000000
    10  Sr    c     0.740337    0.494072    0.392943    0.000000
    11  Sr    c     0.729888    0.489481    0.837356    0.000000
    12  Sr    c     0.740160    0.880107    0.641125    0.000000
    13  Ti    c     0.755004    0.832772    0.158713    0.000000
    14  Ti    c     0.244180    0.487799    0.764293    0.000000
    15  Ti    c     0.245690    0.176399    0.451396    0.000000
--------------------------------------------------------------------------------

  Final Cartesian lattice vectors (Angstroms) :

        4.451821   -0.007451   -0.009520
       -0.011177    6.465631    0.053212
       -0.028561    0.106424   11.263417


  Final cell parameters and derivatives :

--------------------------------------------------------------------------------
       a            4.451837 Angstrom     dE/de1(xx) ************ eV/strain
       b            6.465860 Angstrom     dE/de2(yy) ************ eV/strain
       c           11.263956 Angstrom     dE/de3(zz) ************ eV/strain
       alpha       88.986867 Degrees      dE/de4(yz) ************ eV/strain
       beta        90.268707 Degrees      dE/de5(xz) ************ eV/strain
       gamma       90.195941 Degrees      dE/de6(xy) ************ eV/strain
--------------------------------------------------------------------------------

  Primitive cell volume =           324.176398 Angs**3

  Density of cell =      2.819888 g/cm**3

  Non-primitive cell volume =           324.176398 Angs**3


  Final internal derivatives :

--------------------------------------------------------------------------------
   No.  Atomic          a             b             c           Radius
        Label          (eV)          (eV)          (eV)        (eV/Angs)
--------------------------------------------------------------------------------
      1 O     c       0.000000      0.000000      0.000000      0.000000
      2 O     c ******************************************      0.000000
      3 O     c     -27.984069    -61.955036   -166.553181      0.000000
      4 O     c       2.625000     48.551086    126.122331      0.000000
      5 O     c       8.181376     94.480228   -172.645508      0.000000
      6 O     c ******************************************      0.000000
      7 O     c     -13.255966    -12.697199    159.125284      0.000000
      8 O     c     -66.111205     43.107515   -254.002235      0.000000
      9 O     c       5.698011     25.377102   -108.514843      0.000000
     10 Sr    c      84.192555   -140.979766    278.466154      0.000000
     11 Sr    c     -36.512186      4.542179   -419.262630      0.000000
     12 Sr    c       0.119457    -20.767507    -16.891709      0.000000
     13 Ti    c     -46.571927    126.917832    391.570804      0.000000
     14 Ti    c      47.830248    -29.770185   -352.101002      0.000000
     15 Ti    c     -17.758658     65.121129    264.788696      0.000000
--------------------------------------------------------------------------------
  Maximum abs   ******************************************      0.000000
--------------------------------------------------------------------------------


  Time to end of optimisation =       0.1351 seconds

 Exiting ------OPTIONS------

  Peak dynamic memory used =       0.56 MB 


  Timing analysis for GULP :

--------------------------------------------------------------------------------
  Task / Subroutine                                          Time (Seconds)
--------------------------------------------------------------------------------
  Calculation of reciprocal space energy and derivatives          0.0181
  Calculation of real space energy and derivatives                0.1072
  Global summation overhead                                       0.0001
--------------------------------------------------------------------------------
  Total CPU time                                                  0.1352
--------------------------------------------------------------------------------


  Job Finished at 16:31.48  3rd February   2020                               

