********************************************************************************
*                       GENERAL UTILITY LATTICE PROGRAM                        *
*                                 Julian Gale                                  *
*                       Curtin Institute for Computation                       *
*                           Department of Chemistry                            *
*                    Curtin University, Western Australia                      *
********************************************************************************
* Version = 5.1.1 * Last modified =  25th August 2019                          *
********************************************************************************
*  optimise     - perform optimisation run                                     *
*  conp         - constant pressure calculation                                *
*  nosymmetry   - turn off symmetry after initial structure generation         *
*  full         - generate full unit cell when symmetry is removed             *
*  conjugate    - use conjugate gradients minimiser                            *
********************************************************************************
* ASE calculation                                                              *
********************************************************************************


  Job Started  at 16:31.59  3rd February   2020                               

  Number of CPUs =     1


  Total number of configurations input =      1

********************************************************************************
*  Input for Configuration =   1                                               *
********************************************************************************

  Formula = O9Sr3Ti3                                                    

  Number of irreducible atoms/shells =      15


  Total number atoms/shells =      15

  Dimensionality = 3               :  Bulk   



  Cartesian lattice vectors (Angstroms) :

        4.000000    0.000000    0.000000
        0.000000    6.000000    0.000000
        0.000000    0.000000   10.000000

  Cell parameters (Angstroms/Degrees):

  a =       4.0000    alpha =  90.0000
  b =       6.0000    beta  =  90.0000
  c =      10.0000    gamma =  90.0000

  Initial cell volume =         240.000000 Angs**3

  Temperature of configuration =  0.000     K 

  Pressure of configuration =         0.000 GPa 

  Fractional coordinates of asymmetric unit :

--------------------------------------------------------------------------------
   No.  Atomic       x           y          z         Charge      Occupancy
        Label      (Frac)      (Frac)     (Frac)        (e)         (Frac)  
--------------------------------------------------------------------------------
      1 O     c    0.000000    0.333330    0.800000    -2.00000    1.000000    
      2 O     c    0.000000 *  0.000000 *  0.800000 *  -2.00000    1.000000    
      3 O     c    0.500000 *  0.666670 *  0.600000 *  -2.00000    1.000000    
      4 O     c    0.000000 *  0.666670 *  0.600000 *  -2.00000    1.000000    
      5 O     c    0.000000 *  0.333330 *  0.000000 *  -2.00000    1.000000    
      6 O     c    0.000000 *  0.666670 *  0.800000 *  -2.00000    1.000000    
      7 O     c    0.000000 *  0.000000 *  0.200000 *  -2.00000    1.000000    
      8 O     c    0.500000 *  0.333330 *  0.200000 *  -2.00000    1.000000    
      9 O     c    0.000000 *  0.000000 *  0.000000 *  -2.00000    1.000000    
     10 Sr    c    0.750000 *  0.166670 *  0.900000 *   2.00000    1.000000    
     11 Sr    c    0.250000 *  0.166670 *  0.900000 *   2.00000    1.000000    
     12 Sr    c    0.250000 *  0.166670 *  0.100000 *   2.00000    1.000000    
     13 Ti    c    0.750000 *  0.166670 *  0.700000 *   4.00000    1.000000    
     14 Ti    c    0.250000 *  0.166670 *  0.500000 *   4.00000    1.000000    
     15 Ti    c    0.250000 *  0.166670 *  0.700000 *   4.00000    1.000000    
--------------------------------------------------------------------------------



********************************************************************************
*  General input information                                                   *
********************************************************************************

  Species output for all configurations : 

--------------------------------------------------------------------------------
  Species    Type    Atomic    Atomic    Charge       Radii (Angs)     Library
                     Number     Mass       (e)     Cova   Ionic  VDW   Symbol
--------------------------------------------------------------------------------
    O        Core        8      16.00  -2.000000   0.730  0.000  1.360          
    Sr       Core       38      87.62   2.000000   1.120  0.000  1.670          
    Ti       Core       22      47.88   4.000000   1.470  0.000  2.190          
--------------------------------------------------------------------------------


  Lattice summation method               =    Ewald          (3-D)
                                         =    Parry          (2-D)
                                         =    Saunders et al (1-D)
  Accuracy factor for lattice sums       =   12.000


  Time limit = Infinity

  Maximum range for interatomic potentials =    100000.000000 Angstroms

  General interatomic potentials :

--------------------------------------------------------------------------------
Atom  Types   Potential      Parameter       Value         Units   Cutoffs(Ang)
  1     2                                                            Min /  Max 
--------------------------------------------------------------------------------
O    c Sr   c Buckingham    Buckingham A     1952.3900    eV        0.000 10.000
                            Buckingham rho  0.33685000    Ang       
                            Buckingham C     19.220000    eV*Ang^6  
--------------------------------------------------------------------------------
O    c Ti   c Buckingham    Buckingham A     4590.7279    eV        0.000 10.000
                            Buckingham rho  0.26100000    Ang       
                            Buckingham C     0.0000000    eV*Ang^6  
--------------------------------------------------------------------------------
O    c O    c Buckingham    Buckingham A     1388.7700    eV        0.000 10.000
                            Buckingham rho  0.36262000    Ang       
                            Buckingham C     175.00000    eV*Ang^6  
--------------------------------------------------------------------------------
 Calling ------OPTIONS------

********************************************************************************
*  Output for configuration   1                                                *
********************************************************************************


  Components of energy : 

--------------------------------------------------------------------------------
  Interatomic potentials     =         184.55920138 eV    
  Monopole - monopole (real) =          -3.58671899 eV    
  Monopole - monopole (recip)=        -195.13406381 eV    
  Monopole - monopole (total)=        -198.72078279 eV    
--------------------------------------------------------------------------------
  Total lattice energy       =         -14.16158142 eV    
--------------------------------------------------------------------------------
  Total lattice energy       =           -1366.3761 kJ/(mole unit cells)
--------------------------------------------------------------------------------


  Number of variables =       48

  Maximum number of calculations  =          1000
  Maximum Hessian update interval =            10
  Maximum step size               =   1.000000000
  Maximum parameter tolerance     =   0.000010000
  Maximum function  tolerance     =   0.000010000
  Maximum gradient  tolerance     =   0.001000000
  Maximum gradient  component     =   0.010000000

  Cell parameters to be optimised using strains

  Conjugate gradient optimiser to be used

  Lower half triangular hessian to be used

  Minimiser to switch to BFGS with exact hessian
  When gradient norm is less than     0.100000

  Start of bulk optimisation :

  Cycle:      0 Energy:       -14.161581  Gnorm:     35.512526  CPU:    0.013
 Perform trimming
 Line minimisation2
 ALPHA BEFORE:    1.0000000000000000     
  ** Opt : line minimisation
left   ...       0.00000000     -14.16158142
centre ...       0.25000000     -98.43534940
right  ...       0.50000000    -153.15380047

left   ...       0.00000000     -14.16158142
centre ...       0.25000000     -98.43534940
right  ...       0.50000000    -153.15380047
new    ...       0.83784778    -201.61286615

__s__    ...       0.33784778

left   ...       0.25000000     -98.43534940
centre ...       0.50000000    -153.15380047
right  ...       0.83784778    -201.61286615
new    ...       1.22776949    -223.12598260

__s__    ...       0.38992171

left   ...       0.50000000    -153.15380047
centre ...       0.83784778    -201.61286615
right  ...       1.22776949    -223.12598260
new    ...       1.26027514    -222.49824472

__s__    ...       0.03250565

left   ...       0.83784778    -201.61286615
centre ...       1.22776949    -223.12598260
right  ...       1.26027514    -222.49824472
new    ...       1.18926083    -223.33687542

__s__    ...      -0.07101431

left   ...       0.83784778    -201.61286615
centre ...       1.18926083    -223.33687542
right  ...       1.22776949    -223.12598260
new    ...       1.19264926    -223.34143131

__s__    ...       0.00338843

 ALPHA AFTER:    1.1926492624666976     
  Cycle:      1 Energy:      -223.341431  Gnorm:     16.216605  CPU:    0.026
 Perform trimming
 Line minimisation2
 ALPHA BEFORE:    1.1926492624666976     
  ** Opt : line minimisation
left   ...       0.00000000    -223.34143131
centre ...       0.29816232    -268.89893976
right  ...       0.59632463    -254.59452414

left   ...       0.00000000    -223.34143131
centre ...       0.29816232    -268.89893976
right  ...       0.59632463    -254.59452414
new    ...       0.37599555    -269.90205505

__s__    ...      -0.22032908

left   ...       0.29816232    -268.89893976
centre ...       0.37599555    -269.90205505
right  ...       0.59632463    -254.59452414
new    ...       0.36040665    -270.01551728

__s__    ...      -0.01558890

 ALPHA AFTER:   0.36040665427291618     
  Cycle:      2 Energy:      -270.015517  Gnorm:     13.397858  CPU:    0.031
 Perform trimming
 Line minimisation2
 ALPHA BEFORE:   0.36040665427291618     
  ** Opt : line minimisation
left   ...       0.00000000    -270.01551728
centre ...       0.09010166    -292.62424266
right  ...       0.18020333    -304.75658874

left   ...       0.00000000    -270.01551728
centre ...       0.09010166    -292.62424266
right  ...       0.18020333    -304.75658874
new    ...       0.23949623    -308.48819437

__s__    ...       0.05929291

left   ...       0.09010166    -292.62424266
centre ...       0.18020333    -304.75658874
right  ...       0.23949623    -308.48819437
new    ...       0.27540057    -309.46312922

__s__    ...       0.03590434

left   ...       0.18020333    -304.75658874
centre ...       0.23949623    -308.48819437
right  ...       0.27540057    -309.46312922
new    ...       0.29356986    -309.62749519

__s__    ...       0.01816929

 ALPHA AFTER:   0.29356986221965864     
  Cycle:      3 Energy:      -309.627495  Gnorm:      9.496608  CPU:    0.037
 Line minimisation2
 ALPHA BEFORE:   0.29356986221965864     
  ** Opt : line minimisation
left   ...       0.00000000    -309.62749519
centre ...       0.07339247    -323.31438798
right  ...       0.14678493    -333.77212026

left   ...       0.00000000    -309.62749519
centre ...       0.07339247    -323.31438798
right  ...       0.14678493    -333.77212026
new    ...       0.34777238    -345.29791580

__s__    ...       0.20098745

left   ...       0.07339247    -323.31438798
centre ...       0.14678493    -333.77212026
right  ...       0.34777238    -345.29791580
new    ...       0.33967753    -345.29123974

__s__    ...      -0.00809485

 ALPHA AFTER:   0.34777237902988162     
  Cycle:      4 Energy:      -345.297916  Gnorm:      9.880237  CPU:    0.041
 Perform trimming
 Line minimisation2
 ALPHA BEFORE:   0.34777237902988162     
  ** Opt : line minimisation
left   ...       0.00000000    -345.29791580
centre ...       0.08694309    -361.24193060
right  ...       0.17388619    -368.98152328

left   ...       0.00000000    -345.29791580
centre ...       0.08694309    -361.24193060
right  ...       0.17388619    -368.98152328
new    ...       0.21243189    -369.88052187

__s__    ...       0.03854570

left   ...       0.08694309    -361.24193060
centre ...       0.17388619    -368.98152328
right  ...       0.21243189    -369.88052187
new    ...       0.21543407    -369.89767595

__s__    ...       0.00300217

 ALPHA AFTER:   0.21543406541964863     
  Cycle:      5 Energy:      -369.897676  Gnorm:      9.672900  CPU:    0.044
 Line minimisation2
 ALPHA BEFORE:   0.21543406541964863     
  ** Opt : line minimisation
left   ...       0.00000000    -369.89767595
centre ...       0.05385852    -380.79135646
right  ...       0.10771703    -389.26995222

left   ...       0.00000000    -369.89767595
centre ...       0.05385852    -380.79135646
right  ...       0.10771703    -389.26995222
new    ...       0.26986793    -389.81880608

__s__    ...       0.16215089

left   ...       0.05385852    -380.79135646
centre ...       0.10771703    -389.26995222
right  ...       0.26986793    -389.81880608
new    ...       0.19116577    -395.42242104

__s__    ...      -0.07870216

left   ...       0.10771703    -389.26995222
centre ...       0.19116577    -395.42242104
right  ...       0.26986793    -389.81880608
new    ...       0.19068602    -395.41790552

__s__    ...      -0.00047974

 ALPHA AFTER:   0.19116576653800693     
  Cycle:      6 Energy:      -395.422421  Gnorm:      7.898619  CPU:    0.049
 Line minimisation2
 ALPHA BEFORE:   0.19116576653800693     
  ** Opt : line minimisation
left   ...       0.00000000    -395.42242104
centre ...       0.04779144    -400.74340067
right  ...       0.09558288    -402.41460224

left   ...       0.00000000    -395.42242104
centre ...       0.04779144    -400.74340067
right  ...       0.09558288    -402.41460224
new    ...       0.09357045    -402.41546365

__s__    ...      -0.00201244

 ALPHA AFTER:    9.3570447259821679E-002
  Cycle:      7 Energy:      -402.415464  Gnorm:      6.140776  CPU:    0.052
 Line minimisation2
 ALPHA BEFORE:    9.3570447259821679E-002
  ** Opt : line minimisation
left   ...       0.00000000    -402.41546365
centre ...       0.02339261    -404.38839265
right  ...       0.04678522    -406.14432945

left   ...       0.00000000    -402.41546365
centre ...       0.02339261    -404.38839265
right  ...       0.04678522    -406.14432945
new    ...       0.22438581    -407.01911575

__s__    ...       0.17760058

left   ...       0.02339261    -404.38839265
centre ...       0.04678522    -406.14432945
right  ...       0.22438581    -407.01911575
new    ...       0.14264308    -410.27810992

__s__    ...      -0.08174273

left   ...       0.04678522    -406.14432945
centre ...       0.14264308    -410.27810992
right  ...       0.22438581    -407.01911575
new    ...       0.14085576    -410.26121407

__s__    ...      -0.00178732

 ALPHA AFTER:   0.14264307640420076     
  Cycle:      8 Energy:      -410.278110  Gnorm:      5.288080  CPU:    0.056
 Line minimisation2
 ALPHA BEFORE:   0.14264307640420076     
  ** Opt : line minimisation
left   ...       0.00000000    -410.27810992
centre ...       0.03566077    -412.59159535
right  ...       0.07132154    -414.49225607

left   ...       0.00000000    -410.27810992
centre ...       0.03566077    -412.59159535
right  ...       0.07132154    -414.49225607
new    ...       0.21767469    -418.06261055

__s__    ...       0.14635315

left   ...       0.03566077    -412.59159535
centre ...       0.07132154    -414.49225607
right  ...       0.21767469    -418.06261055
new    ...       0.22131250    -418.06576180

__s__    ...       0.00363781

 ALPHA AFTER:   0.22131250039296518     
  Cycle:      9 Energy:      -418.065762  Gnorm:      6.028520  CPU:    0.060
 Line minimisation2
 ALPHA BEFORE:   0.22131250039296518     
  ** Opt : line minimisation
left   ...       0.00000000    -418.06576180
centre ...       0.05532813    -420.69026520
right  ...       0.11065625    -419.44105189

left   ...       0.00000000    -418.06576180
centre ...       0.05532813    -420.69026520
right  ...       0.11065625    -419.44105189
new    ...       0.06514973    -420.74163242

__s__    ...      -0.04550652

left   ...       0.05532813    -420.69026520
centre ...       0.06514973    -420.74163242
right  ...       0.11065625    -419.44105189
new    ...       0.06451823    -420.74195903

__s__    ...      -0.00063150

 ALPHA AFTER:    6.4518228725113300E-002
  Cycle:     10 Energy:      -420.741959  Gnorm:      4.049566  CPU:    0.064
 Line minimisation2
 ALPHA BEFORE:    6.4518228725113300E-002
  ** Opt : line minimisation
left   ...       0.00000000    -420.74195903
centre ...       0.01612956    -421.32418697
right  ...       0.03225911    -421.85053241

left   ...       0.00000000    -420.74195903
centre ...       0.01612956    -421.32418697
right  ...       0.03225911    -421.85053241
new    ...       0.17611521    -424.44068753

__s__    ...       0.14385610

left   ...       0.01612956    -421.32418697
centre ...       0.03225911    -421.85053241
right  ...       0.17611521    -424.44068753
new    ...       0.20265358    -424.56793207

__s__    ...       0.02653837

 ALPHA AFTER:   0.20265357779691687     
  Cycle:     11 Energy:      -424.567932  Gnorm:      5.039439  CPU:    0.067
 Perform trimming
 Line minimisation2
 ALPHA BEFORE:   0.20265357779691687     
  ** Opt : line minimisation
left   ...       0.00000000    -424.56793207
centre ...       0.05066339    -426.67829613
right  ...       0.10132679    -427.60671238

left   ...       0.00000000    -424.56793207
centre ...       0.05066339    -426.67829613
right  ...       0.10132679    -427.60671238
new    ...       0.11579103    -427.59571062

__s__    ...       0.01446424

 ALPHA AFTER:   0.10132678889845843     
  Cycle:     12 Energy:      -427.606712  Gnorm:      3.829345  CPU:    0.070
 Line minimisation2
 ALPHA BEFORE:   0.10132678889845843     
  ** Opt : line minimisation
left   ...       0.00000000    -427.60671238
centre ...       0.02533170    -428.46802808
right  ...       0.05066339    -429.24124796

left   ...       0.00000000    -427.60671238
centre ...       0.02533170    -428.46802808
right  ...       0.05066339    -429.24124796
new    ...       0.26033470    -431.97201564

__s__    ...       0.20967130

left   ...       0.02533170    -428.46802808
centre ...       0.05066339    -429.24124796
right  ...       0.26033470    -431.97201564
new    ...       0.24294846    -432.01295574

__s__    ...      -0.01738624

 ALPHA AFTER:   0.24294845639939444     
  Cycle:     13 Energy:      -432.012956  Gnorm:      4.997096  CPU:    0.074
 Perform trimming
 Line minimisation2
 ALPHA BEFORE:   0.24294845639939444     
  ** Opt : line minimisation
left   ...       0.00000000    -432.01295574
centre ...       0.06073711    -433.60100253
right  ...       0.12147423    -433.15057486

left   ...       0.00000000    -432.01295574
centre ...       0.06073711    -433.60100253
right  ...       0.12147423    -433.15057486
new    ...       0.07768501    -433.70103634

__s__    ...      -0.04378922

left   ...       0.06073711    -433.60100253
centre ...       0.07768501    -433.70103634
right  ...       0.12147423    -433.15057486
new    ...       0.07891425    -433.70183290

__s__    ...       0.00122924

 ALPHA AFTER:    7.8914250085566642E-002
  Cycle:     14 Energy:      -433.701833  Gnorm:      3.202397  CPU:    0.078
 Line minimisation2
 ALPHA BEFORE:    7.8914250085566642E-002
  ** Opt : line minimisation
left   ...       0.00000000    -433.70183290
centre ...       0.01972856    -434.14209183
right  ...       0.03945713    -434.53278441

left   ...       0.00000000    -433.70183290
centre ...       0.01972856    -434.14209183
right  ...       0.03945713    -434.53278441
new    ...       0.18509758    -435.95103490

__s__    ...       0.14564046

left   ...       0.01972856    -434.14209183
centre ...       0.03945713    -434.53278441
right  ...       0.18509758    -435.95103490
new    ...       0.19227279    -435.95715414

__s__    ...       0.00717521

 ALPHA AFTER:   0.19227278937518771     
  Cycle:     15 Energy:      -435.957154  Gnorm:      2.899862  CPU:    0.081
 Line minimisation2
 ALPHA BEFORE:   0.19227278937518771     
  ** Opt : line minimisation
left   ...       0.00000000    -435.95715414
centre ...       0.04806820    -436.65467691
right  ...       0.09613639    -436.90548271

left   ...       0.00000000    -435.95715414
centre ...       0.04806820    -436.65467691
right  ...       0.09613639    -436.90548271
new    ...       0.09908981    -436.90791040

__s__    ...       0.00295342

 ALPHA AFTER:    9.9089814277842303E-002
  Cycle:     16 Energy:      -436.907910  Gnorm:      3.606687  CPU:    0.084
 Perform trimming
 Line minimisation2
 ALPHA BEFORE:    9.9089814277842303E-002
  ** Opt : line minimisation
left   ...       0.00000000    -436.90791040
centre ...       0.02477245    -437.48833913
right  ...       0.04954491    -437.92370232

left   ...       0.00000000    -436.90791040
centre ...       0.02477245    -437.48833913
right  ...       0.04954491    -437.92370232
new    ...       0.11150449    -438.38878166

__s__    ...       0.06195958

left   ...       0.02477245    -437.48833913
centre ...       0.04954491    -437.92370232
right  ...       0.11150449    -438.38878166
new    ...       0.11285512    -438.38907879

__s__    ...       0.00135063

 ALPHA AFTER:   0.11285511510262475     
  Cycle:     17 Energy:      -438.389079  Gnorm:      3.526414  CPU:    0.088
 Line minimisation2
 ALPHA BEFORE:   0.11285511510262475     
  ** Opt : line minimisation
left   ...       0.00000000    -438.38907879
centre ...       0.02821378    -439.14276385
right  ...       0.05642756    -439.77912440

left   ...       0.00000000    -438.38907879
centre ...       0.02821378    -439.14276385
right  ...       0.05642756    -439.77912440
new    ...       0.19535038    -441.09904769

__s__    ...       0.13892283

left   ...       0.02821378    -439.14276385
centre ...       0.05642756    -439.77912440
right  ...       0.19535038    -441.09904769
new    ...       0.18671349    -441.10973822

__s__    ...      -0.00863689

 ALPHA AFTER:   0.18671349148423541     
  Cycle:     18 Energy:      -441.109738  Gnorm:      4.781822  CPU:    0.092
 Perform trimming
 Line minimisation2
 ALPHA BEFORE:   0.18671349148423541     
  ** Opt : line minimisation
left   ...       0.00000000    -441.10973822
centre ...       0.04667837    -442.54827427
right  ...       0.09335675    -443.27231199

left   ...       0.00000000    -441.10973822
centre ...       0.04667837    -442.54827427
right  ...       0.09335675    -443.27231199
new    ...       0.11731914    -443.29168172

__s__    ...       0.02396240

 ALPHA AFTER:   0.11731914383922920     
  Cycle:     19 Energy:      -443.291682  Gnorm:      3.108356  CPU:    0.095
 Line minimisation2
 ALPHA BEFORE:   0.11731914383922920     
  ** Opt : line minimisation
left   ...       0.00000000    -443.29168172
centre ...       0.02932979    -443.83320908
right  ...       0.05865957    -444.17091353

left   ...       0.00000000    -443.29168172
centre ...       0.02932979    -443.83320908
right  ...       0.05865957    -444.17091353
new    ...       0.09258980    -444.31359588

__s__    ...       0.03393023

 ALPHA AFTER:    9.2589798594091000E-002
  Cycle:     20 Energy:      -444.313596  Gnorm:      2.866159  CPU:    0.097
 Line minimisation2
 ALPHA BEFORE:    9.2589798594091000E-002
  ** Opt : line minimisation
left   ...       0.00000000    -444.31359588
centre ...       0.02314745    -444.66150605
right  ...       0.04629490    -444.82726121

left   ...       0.00000000    -444.31359588
centre ...       0.02314745    -444.66150605
right  ...       0.04629490    -444.82726121
new    ...       0.05578460    -444.84470905

__s__    ...       0.00948971

 ALPHA AFTER:    5.5784604404408529E-002
  Cycle:     21 Energy:      -444.844709  Gnorm:      1.550147  CPU:    0.100
 Line minimisation2
 ALPHA BEFORE:    5.5784604404408529E-002
  ** Opt : line minimisation
left   ...       0.00000000    -444.84470905
centre ...       0.01394615    -444.91905414
right  ...       0.02789230    -444.98699402

left   ...       0.00000000    -444.84470905
centre ...       0.01394615    -444.91905414
right  ...       0.02789230    -444.98699402
new    ...       0.16884592    -445.31577358

__s__    ...       0.14095362

left   ...       0.01394615    -444.91905414
centre ...       0.02789230    -444.98699402
right  ...       0.16884592    -445.31577358
new    ...       0.16951964    -445.31572760

__s__    ...       0.00067372

 ALPHA AFTER:   0.16884591922567141     
  Cycle:     22 Energy:      -445.315774  Gnorm:      1.961431  CPU:    0.104
 Perform trimming
 Line minimisation2
 ALPHA BEFORE:   0.16884591922567141     
  ** Opt : line minimisation
left   ...       0.00000000    -445.31577358
centre ...       0.04221148    -445.56068169
right  ...       0.08442296    -445.71776126

left   ...       0.00000000    -445.31577358
centre ...       0.04221148    -445.56068169
right  ...       0.08442296    -445.71776126
new    ...       0.13881160    -445.78869562

__s__    ...       0.05438864

 ALPHA AFTER:   0.13881160266513651     
  Cycle:     23 Energy:      -445.788696  Gnorm:      1.655473  CPU:    0.107
 Line minimisation2
 ALPHA BEFORE:   0.13881160266513651     
  ** Opt : line minimisation
left   ...       0.00000000    -445.78869562
centre ...       0.03470290    -445.98894281
right  ...       0.06940580    -446.15748336

left   ...       0.00000000    -445.78869562
centre ...       0.03470290    -445.98894281
right  ...       0.06940580    -446.15748336
new    ...       0.23652195    -446.51959803

__s__    ...       0.16711615

left   ...       0.03470290    -445.98894281
centre ...       0.06940580    -446.15748336
right  ...       0.23652195    -446.51959803
new    ...       0.23425359    -446.51977035

__s__    ...      -0.00226836

 ALPHA AFTER:   0.23425359421211331     
  Cycle:     24 Energy:      -446.519770  Gnorm:      3.019492  CPU:    0.111
 Perform trimming
 Line minimisation2
 ALPHA BEFORE:   0.23425359421211331     
  ** Opt : line minimisation
left   ...       0.00000000    -446.51977035
centre ...       0.05856340    -446.90470092
right  ...       0.11712680    -447.10314190

left   ...       0.00000000    -446.51977035
centre ...       0.05856340    -446.90470092
right  ...       0.11712680    -447.10314190
new    ...       0.15016159    -447.13959719

__s__    ...       0.03303480

 ALPHA AFTER:   0.15016159247701216     
  Cycle:     25 Energy:      -447.139597  Gnorm:      2.056153  CPU:    0.114
 Line minimisation2
 ALPHA BEFORE:   0.15016159247701216     
  ** Opt : line minimisation
left   ...       0.00000000    -447.13959719
centre ...       0.03754040    -447.45854251
right  ...       0.07508080    -447.67162032

left   ...       0.00000000    -447.13959719
centre ...       0.03754040    -447.45854251
right  ...       0.07508080    -447.67162032
new    ...       0.13186754    -447.79133779

__s__    ...       0.05678674

 ALPHA AFTER:   0.13186753946012428     
  Cycle:     26 Energy:      -447.791338  Gnorm:      1.798518  CPU:    0.117
 Line minimisation2
 ALPHA BEFORE:   0.13186753946012428     
  ** Opt : line minimisation
left   ...       0.00000000    -447.79133779
centre ...       0.03296688    -447.99591606
right  ...       0.06593377    -448.11806752

left   ...       0.00000000    -447.79133779
centre ...       0.03296688    -447.99591606
right  ...       0.06593377    -448.11806752
new    ...       0.09830523    -448.15744488

__s__    ...       0.03237146

 ALPHA AFTER:    9.8305230452080755E-002
  Cycle:     27 Energy:      -448.157445  Gnorm:      1.669775  CPU:    0.120
 Line minimisation2
 ALPHA BEFORE:    9.8305230452080755E-002
  ** Opt : line minimisation
left   ...       0.00000000    -448.15744488
centre ...       0.02457631    -448.30507483
right  ...       0.04915262    -448.43191459

left   ...       0.00000000    -448.15744488
centre ...       0.02457631    -448.30507483
right  ...       0.04915262    -448.43191459
new    ...       0.18680316    -448.73322400

__s__    ...       0.13765055

left   ...       0.02457631    -448.30507483
centre ...       0.04915262    -448.43191459
right  ...       0.18680316    -448.73322400
new    ...       0.17771745    -448.73534774

__s__    ...      -0.00908571

 ALPHA AFTER:   0.17771745313870771     
  Cycle:     28 Energy:      -448.735348  Gnorm:      1.731287  CPU:    0.125
 Line minimisation2
 ALPHA BEFORE:   0.17771745313870771     
  ** Opt : line minimisation
left   ...       0.00000000    -448.73534774
centre ...       0.04442936    -448.93490565
right  ...       0.08885873    -448.93874227

left   ...       0.00000000    -448.73534774
centre ...       0.04442936    -448.93490565
right  ...       0.08885873    -448.93874227
new    ...       0.06751497    -448.96045456

__s__    ...      -0.02134376

 ALPHA AFTER:    6.7514969256316601E-002
  Cycle:     29 Energy:      -448.960455  Gnorm:      1.761383  CPU:    0.129
 Line minimisation2
 ALPHA BEFORE:    6.7514969256316601E-002
  ** Opt : line minimisation
left   ...       0.00000000    -448.96045456
centre ...       0.01687874    -449.06067866
right  ...       0.03375748    -449.11952700

left   ...       0.00000000    -448.96045456
centre ...       0.01687874    -449.06067866
right  ...       0.03375748    -449.11952700
new    ...       0.04932459    -449.13662486

__s__    ...       0.01556710

 ALPHA AFTER:    4.9324589314051447E-002
  Cycle:     30 Energy:      -449.136625  Gnorm:      1.125252  CPU:    0.133
 Line minimisation2
 ALPHA BEFORE:    4.9324589314051447E-002
  ** Opt : line minimisation
left   ...       0.00000000    -449.13662486
centre ...       0.01233115    -449.16964966
right  ...       0.02466229    -449.19780715

left   ...       0.00000000    -449.13662486
centre ...       0.01233115    -449.16964966
right  ...       0.02466229    -449.19780715
new    ...       0.08983255    -449.26657680

__s__    ...       0.06517026

left   ...       0.01233115    -449.16964966
centre ...       0.02466229    -449.19780715
right  ...       0.08983255    -449.26657680
new    ...       0.09054044    -449.26657623

__s__    ...       0.00070789

 ALPHA AFTER:    8.9832550222218074E-002
  Cycle:     31 Energy:      -449.266577  Gnorm:      0.900559  CPU:    0.137
 Line minimisation2
 ALPHA BEFORE:    8.9832550222218074E-002
  ** Opt : line minimisation
left   ...       0.00000000    -449.26657680
centre ...       0.02245814    -449.30567582
right  ...       0.04491628    -449.33834313

left   ...       0.00000000    -449.26657680
centre ...       0.02245814    -449.30567582
right  ...       0.04491628    -449.33834313
new    ...       0.14775422    -449.40770031

__s__    ...       0.10283795

left   ...       0.02245814    -449.30567582
centre ...       0.04491628    -449.33834313
right  ...       0.14775422    -449.40770031
new    ...       0.15049353    -449.40773941

__s__    ...       0.00273930

 ALPHA AFTER:   0.15049352826425966     
  Cycle:     32 Energy:      -449.407739  Gnorm:      1.235800  CPU:    0.142
 Perform trimming
 Line minimisation2
 ALPHA BEFORE:   0.15049352826425966     
  ** Opt : line minimisation
left   ...       0.00000000    -449.40773941
centre ...       0.03762338    -449.48964580
right  ...       0.07524676    -449.55001307

left   ...       0.00000000    -449.40773941
centre ...       0.03762338    -449.48964580
right  ...       0.07524676    -449.55001307
new    ...       0.16188139    -449.60477358

__s__    ...       0.08663463

left   ...       0.03762338    -449.48964580
centre ...       0.07524676    -449.55001307
right  ...       0.16188139    -449.60477358
new    ...       0.15894838    -449.60481466

__s__    ...      -0.00293301

 ALPHA AFTER:   0.15894838239634895     
  Cycle:     33 Energy:      -449.604815  Gnorm:      1.111632  CPU:    0.147
 Line minimisation2
 ALPHA BEFORE:   0.15894838239634895     
  ** Opt : line minimisation
left   ...       0.00000000    -449.60481466
centre ...       0.03973710    -449.70771254
right  ...       0.07947419    -449.78782527

left   ...       0.00000000    -449.60481466
centre ...       0.03973710    -449.70771254
right  ...       0.07947419    -449.78782527
new    ...       0.19932160    -449.87783115

__s__    ...       0.11984741

left   ...       0.03973710    -449.70771254
centre ...       0.07947419    -449.78782527
right  ...       0.19932160    -449.87783115
new    ...       0.18676645    -449.87968270

__s__    ...      -0.01255515

 ALPHA AFTER:   0.18676644516070431     
  Cycle:     34 Energy:      -449.879683  Gnorm:      1.957182  CPU:    0.152
 Perform trimming
 Line minimisation2
 ALPHA BEFORE:   0.18676644516070431     
  ** Opt : line minimisation
left   ...       0.00000000    -449.87968270
centre ...       0.04669161    -450.02394461
right  ...       0.09338322    -450.11616303

left   ...       0.00000000    -449.87968270
centre ...       0.04669161    -450.02394461
right  ...       0.09338322    -450.11616303
new    ...       0.15277256    -450.15684575

__s__    ...       0.05938934

 ALPHA AFTER:   0.15277256229906475     
  Cycle:     35 Energy:      -450.156846  Gnorm:      1.391468  CPU:    0.156
 Line minimisation2
 ALPHA BEFORE:   0.15277256229906475     
  ** Opt : line minimisation
left   ...       0.00000000    -450.15684575
centre ...       0.03819314    -450.31198195
right  ...       0.07638628    -450.43688867

left   ...       0.00000000    -450.15684575
centre ...       0.03819314    -450.31198195
right  ...       0.07638628    -450.43688867
new    ...       0.21510186    -450.63631819

__s__    ...       0.13871558

left   ...       0.03819314    -450.31198195
centre ...       0.07638628    -450.43688867
right  ...       0.21510186    -450.63631819
new    ...       0.21513291    -450.63631795

__s__    ...       0.00003106

 ALPHA AFTER:   0.21510185815120741     
  Cycle:     36 Energy:      -450.636318  Gnorm:      1.704052  CPU:    0.161
 Perform trimming
 Line minimisation2
 ALPHA BEFORE:   0.21510185815120741     
  ** Opt : line minimisation
left   ...       0.00000000    -450.63631819
centre ...       0.05377546    -450.82176357
right  ...       0.10755093    -450.87083238

left   ...       0.00000000    -450.63631819
centre ...       0.05377546    -450.82176357
right  ...       0.10755093    -450.87083238
new    ...       0.10001182    -450.87168602

__s__    ...      -0.00753911

 ALPHA AFTER:   0.10001181507668433     
  Cycle:     37 Energy:      -450.871686  Gnorm:      1.606899  CPU:    0.165
 Line minimisation2
 ALPHA BEFORE:   0.10001181507668433     
  ** Opt : line minimisation
left   ...       0.00000000    -450.87168602
centre ...       0.02500295    -451.00347211
right  ...       0.05000591    -451.09720054

left   ...       0.00000000    -450.87168602
centre ...       0.02500295    -451.00347211
right  ...       0.05000591    -451.09720054
new    ...       0.09908171    -451.17025722

__s__    ...       0.04907580

left   ...       0.02500295    -451.00347211
centre ...       0.05000591    -451.09720054
right  ...       0.09908171    -451.17025722
new    ...       0.09894096    -451.17025601

__s__    ...      -0.00014075

 ALPHA AFTER:    9.9081710183636706E-002
  Cycle:     38 Energy:      -451.170257  Gnorm:      1.306518  CPU:    0.169
 Line minimisation2
 ALPHA BEFORE:    9.9081710183636706E-002
  ** Opt : line minimisation
left   ...       0.00000000    -451.17025722
centre ...       0.02477043    -451.25934539
right  ...       0.04954086    -451.32998482

left   ...       0.00000000    -451.17025722
centre ...       0.02477043    -451.25934539
right  ...       0.04954086    -451.32998482
new    ...       0.13200049    -451.42750197

__s__    ...       0.08245964

left   ...       0.02477043    -451.25934539
centre ...       0.04954086    -451.32998482
right  ...       0.13200049    -451.42750197
new    ...       0.12875708    -451.42773703

__s__    ...      -0.00324342

 ALPHA AFTER:   0.12875707626107291     
  Cycle:     39 Energy:      -451.427737  Gnorm:      1.704242  CPU:    0.174
 Line minimisation2
 ALPHA BEFORE:   0.12875707626107291     
  ** Opt : line minimisation
left   ...       0.00000000    -451.42773703
centre ...       0.03218927    -451.56452541
right  ...       0.06437854    -451.54179667

left   ...       0.00000000    -451.42773703
centre ...       0.03218927    -451.56452541
right  ...       0.06437854    -451.54179667
new    ...       0.04369743    -451.57487696

__s__    ...      -0.02068111

left   ...       0.03218927    -451.56452541
centre ...       0.04369743    -451.57487696
right  ...       0.06437854    -451.54179667
new    ...       0.04373640    -451.57487730

__s__    ...       0.00003898

 ALPHA AFTER:    4.3736404888187676E-002
  Cycle:     40 Energy:      -451.574877  Gnorm:      0.985211  CPU:    0.179
 Line minimisation2
 ALPHA BEFORE:    4.3736404888187676E-002
  ** Opt : line minimisation
left   ...       0.00000000    -451.57487730
centre ...       0.01093410    -451.59727670
right  ...       0.02186820    -451.61513988

left   ...       0.00000000    -451.57487730
centre ...       0.01093410    -451.59727670
right  ...       0.02186820    -451.61513988
new    ...       0.05945849    -451.64209120

__s__    ...       0.03759029

left   ...       0.01093410    -451.59727670
centre ...       0.02186820    -451.61513988
right  ...       0.05945849    -451.64209120
new    ...       0.05963870    -451.64209005

__s__    ...       0.00018021

 ALPHA AFTER:    5.9458490816743606E-002
  Cycle:     41 Energy:      -451.642091  Gnorm:      0.709074  CPU:    0.184
 Line minimisation2
 ALPHA BEFORE:    5.9458490816743606E-002
  ** Opt : line minimisation
left   ...       0.00000000    -451.64209120
centre ...       0.01486462    -451.65892473
right  ...       0.02972925    -451.67429272

left   ...       0.00000000    -451.64209120
centre ...       0.01486462    -451.65892473
right  ...       0.02972925    -451.67429272
new    ...       0.17817172    -451.74765148

__s__    ...       0.14844248

left   ...       0.01486462    -451.65892473
centre ...       0.02972925    -451.67429272
right  ...       0.17817172    -451.74765148
new    ...       0.17872218    -451.74765159

__s__    ...       0.00055046

 ALPHA AFTER:   0.17872218318273417     
  Cycle:     42 Energy:      -451.747652  Gnorm:      1.297980  CPU:    0.188
 Perform trimming
 Line minimisation2
 ALPHA BEFORE:   0.17872218318273417     
  ** Opt : line minimisation
left   ...       0.00000000    -451.74765159
centre ...       0.04468055    -451.81583266
right  ...       0.08936109    -451.87558455

left   ...       0.00000000    -451.74765159
centre ...       0.04468055    -451.81583266
right  ...       0.08936109    -451.87558455
new    ...       0.38374793    -452.06420141

__s__    ...       0.29438684

left   ...       0.04468055    -451.81583266
centre ...       0.08936109    -451.87558455
right  ...       0.38374793    -452.06420141
new    ...       0.39248574    -452.06418570

__s__    ...       0.00873781

 ALPHA AFTER:   0.38374793492610404     
  Cycle:     43 Energy:      -452.064201  Gnorm:      1.217696  CPU:    0.193
 Line minimisation2
 ALPHA BEFORE:   0.38374793492610404     
  ** Opt : line minimisation
left   ...       0.00000000    -452.06420141
centre ...       0.09593698    -452.21697362
right  ...       0.19187397    -452.01921509

left   ...       0.00000000    -452.06420141
centre ...       0.09593698    -452.21697362
right  ...       0.19187397    -452.01921509
new    ...       0.08978082    -452.21791678

__s__    ...      -0.10209315

left   ...       0.00000000    -452.06420141
centre ...       0.08978082    -452.21791678
right  ...       0.09593698    -452.21697362
new    ...       0.08891907    -452.21793368

__s__    ...      -0.00086174

 ALPHA AFTER:    8.8919072018242160E-002
  Cycle:     44 Energy:      -452.217934  Gnorm:      1.665976  CPU:    0.198
 Perform trimming
 Line minimisation2
 ALPHA BEFORE:    8.8919072018242160E-002
  ** Opt : line minimisation
left   ...       0.00000000    -452.21793368
centre ...       0.02222977    -452.30908532
right  ...       0.04445954    -452.38966349

left   ...       0.00000000    -452.21793368
centre ...       0.02222977    -452.30908532
right  ...       0.04445954    -452.38966349
new    ...       0.20275289    -452.64253377

__s__    ...       0.15829336

left   ...       0.02222977    -452.30908532
centre ...       0.04445954    -452.38966349
right  ...       0.20275289    -452.64253377
new    ...       0.19473055    -452.64315011

__s__    ...      -0.00802234

 ALPHA AFTER:   0.19473054924637193     
  Cycle:     45 Energy:      -452.643150  Gnorm:      1.679040  CPU:    0.203
 Line minimisation2
 ALPHA BEFORE:   0.19473054924637193     
  ** Opt : line minimisation
left   ...       0.00000000    -452.64315011
centre ...       0.04868264    -452.91185649
right  ...       0.09736527    -453.08610387

left   ...       0.00000000    -452.64315011
centre ...       0.04868264    -452.91185649
right  ...       0.09736527    -453.08610387
new    ...       0.16282824    -453.17757749

__s__    ...       0.06546297

 ALPHA AFTER:   0.16282824432284795     
  Cycle:     46 Energy:      -453.177577  Gnorm:      2.039769  CPU:    0.207
 Perform trimming
 Line minimisation2
 ALPHA BEFORE:   0.16282824432284795     
  ** Opt : line minimisation
left   ...       0.00000000    -453.17757749
centre ...       0.04070706    -453.40583925
right  ...       0.08141412    -453.43704655

left   ...       0.00000000    -453.17757749
centre ...       0.04070706    -453.40583925
right  ...       0.08141412    -453.43704655
new    ...       0.06750732    -453.44683042

__s__    ...      -0.01390680

 ALPHA AFTER:    6.7507324392810680E-002
  Cycle:     47 Energy:      -453.446830  Gnorm:      2.034869  CPU:    0.211
 Line minimisation2
 ALPHA BEFORE:    6.7507324392810680E-002
  ** Opt : line minimisation
left   ...       0.00000000    -453.44683042
centre ...       0.01687683    -453.59815874
right  ...       0.03375366    -453.72755930

left   ...       0.00000000    -453.44683042
centre ...       0.01687683    -453.59815874
right  ...       0.03375366    -453.72755930
new    ...       0.12490915    -454.04014565

__s__    ...       0.09115549

left   ...       0.01687683    -453.59815874
centre ...       0.03375366    -453.72755930
right  ...       0.12490915    -454.04014565
new    ...       0.12303630    -454.04042463

__s__    ...      -0.00187285

 ALPHA AFTER:   0.12303630241960027     
  Cycle:     48 Energy:      -454.040425  Gnorm:      1.627732  CPU:    0.216
 Line minimisation2
 ALPHA BEFORE:   0.12303630241960027     
  ** Opt : line minimisation
left   ...       0.00000000    -454.04042463
centre ...       0.03075908    -454.22403416
right  ...       0.06151815    -454.39865659

left   ...       0.00000000    -454.04042463
centre ...       0.03075908    -454.22403416
right  ...       0.06151815    -454.39865659
new    ...       0.64379728    -455.31726621

__s__    ...       0.58227912

left   ...       0.03075908    -454.22403416
centre ...       0.06151815    -454.39865659
right  ...       0.64379728    -455.31726621
new    ...       0.47061567    -455.65254162

__s__    ...      -0.17318160

left   ...       0.06151815    -454.39865659
centre ...       0.47061567    -455.65254162
right  ...       0.64379728    -455.31726621
new    ...       0.44450070    -455.64850540

__s__    ...      -0.02611497

 ALPHA AFTER:   0.47061567056678238     
  Cycle:     49 Energy:      -455.652542  Gnorm:      3.057628  CPU:    0.222
 Line minimisation2
 ALPHA BEFORE:   0.47061567056678238     
  ** Opt : line minimisation
left   ...       0.00000000    -455.65254162
centre ...       0.11765392    -455.79335739
right  ...       0.23530784    -450.95361044

left   ...       0.00000000    -455.65254162
centre ...       0.11765392    -455.79335739
right  ...       0.23530784    -450.95361044
new    ...       0.06215340    -456.32684997

__s__    ...      -0.17315444

left   ...       0.00000000    -455.65254162
centre ...       0.06215340    -456.32684997
right  ...       0.11765392    -455.79335739
new    ...       0.06226795    -456.32686186

__s__    ...       0.00011456

 ALPHA AFTER:    6.2267954309075856E-002
  Cycle:     50 Energy:      -456.326862  Gnorm:      1.734010  CPU:    0.226
 Line minimisation2
 ALPHA BEFORE:    6.2267954309075856E-002
  ** Opt : line minimisation
left   ...       0.00000000    -456.32686186
centre ...       0.01556699    -456.41809728
right  ...       0.03113398    -456.47615013

left   ...       0.00000000    -456.32686186
centre ...       0.01556699    -456.41809728
right  ...       0.03113398    -456.47615013
new    ...       0.05058490    -456.50264072

__s__    ...       0.01945092

 ALPHA AFTER:    5.0584896000390782E-002
  Cycle:     51 Energy:      -456.502641  Gnorm:      1.198659  CPU:    0.230
 Line minimisation2
 ALPHA BEFORE:    5.0584896000390782E-002
  ** Opt : line minimisation
left   ...       0.00000000    -456.50264072
centre ...       0.01264622    -456.54096022
right  ...       0.02529245    -456.57311213

left   ...       0.00000000    -456.50264072
centre ...       0.01264622    -456.54096022
right  ...       0.02529245    -456.57311213
new    ...       0.08489473    -456.63444096

__s__    ...       0.05960228

left   ...       0.01264622    -456.54096022
centre ...       0.02529245    -456.57311213
right  ...       0.08489473    -456.63444096
new    ...       0.07965392    -456.63496224

__s__    ...      -0.00524081

 ALPHA AFTER:    7.9653919545496887E-002
  Cycle:     52 Energy:      -456.634962  Gnorm:      0.974340  CPU:    0.235
 Line minimisation2
 ALPHA BEFORE:    7.9653919545496887E-002
  ** Opt : line minimisation
left   ...       0.00000000    -456.63496224
centre ...       0.01991348    -456.67202405
right  ...       0.03982696    -456.69652719

left   ...       0.00000000    -456.63496224
centre ...       0.01991348    -456.67202405
right  ...       0.03982696    -456.69652719
new    ...       0.06872331    -456.70860312

__s__    ...       0.02889635

 ALPHA AFTER:    6.8723308414267242E-002
  Cycle:     53 Energy:      -456.708603  Gnorm:      0.900500  CPU:    0.239
 Line minimisation2
 ALPHA BEFORE:    6.8723308414267242E-002
  ** Opt : line minimisation
left   ...       0.00000000    -456.70860312
centre ...       0.01718083    -456.73831797
right  ...       0.03436165    -456.76534769

left   ...       0.00000000    -456.70860312
centre ...       0.01718083    -456.73831797
right  ...       0.03436165    -456.76534769
new    ...       0.19872104    -456.88091886

__s__    ...       0.16435939

left   ...       0.01718083    -456.73831797
centre ...       0.03436165    -456.76534769
right  ...       0.19872104    -456.88091886
new    ...       0.18989720    -456.88119219

__s__    ...      -0.00882384

 ALPHA AFTER:   0.18989719937692845     
  Cycle:     54 Energy:      -456.881192  Gnorm:      0.787943  CPU:    0.244
 Line minimisation2
 ALPHA BEFORE:   0.18989719937692845     
  ** Opt : line minimisation
left   ...       0.00000000    -456.88119219
centre ...       0.04747430    -456.93717402
right  ...       0.09494860    -456.96645114

left   ...       0.00000000    -456.88119219
centre ...       0.04747430    -456.93717402
right  ...       0.09494860    -456.96645114
new    ...       0.12325888    -456.97118729

__s__    ...       0.02831028

 ALPHA AFTER:   0.12325887757696727     
  Cycle:     55 Energy:      -456.971187  Gnorm:      1.425171  CPU:    0.248
 Perform trimming
 Line minimisation2
 ALPHA BEFORE:   0.12325887757696727     
  ** Opt : line minimisation
left   ...       0.00000000    -456.97118729
centre ...       0.03081472    -457.02851938
right  ...       0.06162944    -457.07706536

left   ...       0.00000000    -456.97118729
centre ...       0.03081472    -457.02851938
right  ...       0.06162944    -457.07706536
new    ...       0.21648309    -457.18594811

__s__    ...       0.15485366

left   ...       0.03081472    -457.02851938
centre ...       0.06162944    -457.07706536
right  ...       0.21648309    -457.18594811
new    ...       0.21388847    -457.18600202

__s__    ...      -0.00259463

 ALPHA AFTER:   0.21388846914466478     
  Cycle:     56 Energy:      -457.186002  Gnorm:      1.288377  CPU:    0.254
 Line minimisation2
 ALPHA BEFORE:   0.21388846914466478     
  ** Opt : line minimisation
left   ...       0.00000000    -457.18600202
centre ...       0.05347212    -457.32299034
right  ...       0.10694423    -457.33097316

left   ...       0.00000000    -457.18600202
centre ...       0.05347212    -457.32299034
right  ...       0.10694423    -457.33097316
new    ...       0.08351701    -457.34276843

__s__    ...      -0.02342722

 ALPHA AFTER:    8.3517011204729333E-002
  Cycle:     57 Energy:      -457.342768  Gnorm:      1.394048  CPU:    0.259
 Line minimisation2
 ALPHA BEFORE:    8.3517011204729333E-002
  ** Opt : line minimisation
left   ...       0.00000000    -457.34276843
centre ...       0.02087925    -457.42475748
right  ...       0.04175851    -457.48366240

left   ...       0.00000000    -457.34276843
centre ...       0.02087925    -457.42475748
right  ...       0.04175851    -457.48366240
new    ...       0.08459752    -457.53209863

__s__    ...       0.04283901

left   ...       0.02087925    -457.42475748
centre ...       0.04175851    -457.48366240
right  ...       0.08459752    -457.53209863
new    ...       0.08448558    -457.53209953

__s__    ...      -0.00011194

 ALPHA AFTER:    8.4485582110079935E-002
  Cycle:     58 Energy:      -457.532100  Gnorm:      0.917729  CPU:    0.266
 Line minimisation2
 ALPHA BEFORE:    8.4485582110079935E-002
  ** Opt : line minimisation
left   ...       0.00000000    -457.53209953
centre ...       0.02112140    -457.56947056
right  ...       0.04224279    -457.59979202

left   ...       0.00000000    -457.53209953
centre ...       0.02112140    -457.56947056
right  ...       0.04224279    -457.59979202
new    ...       0.12252874    -457.65068334

__s__    ...       0.08028595

left   ...       0.02112140    -457.56947056
centre ...       0.04224279    -457.59979202
right  ...       0.12252874    -457.65068334
new    ...       0.12247517    -457.65068344

__s__    ...      -0.00005357

 ALPHA AFTER:   0.12247517059140296     
  Cycle:     59 Energy:      -457.650683  Gnorm:      1.078777  CPU:    0.272
 Line minimisation2
 ALPHA BEFORE:   0.12247517059140296     
  ** Opt : line minimisation
left   ...       0.00000000    -457.65068344
centre ...       0.03061879    -457.69727174
right  ...       0.06123759    -457.67201828

left   ...       0.00000000    -457.65068344
centre ...       0.03061879    -457.69727174
right  ...       0.06123759    -457.67201828
new    ...       0.03516522    -457.69812061

__s__    ...      -0.02607236

left   ...       0.03061879    -457.69727174
centre ...       0.03516522    -457.69812061
right  ...       0.06123759    -457.67201828
new    ...       0.03529838    -457.69812153

__s__    ...       0.00013316

 ALPHA AFTER:    3.5298378883895060E-002
  Cycle:     60 Energy:      -457.698122  Gnorm:      0.661387  CPU:    0.279
 Line minimisation2
 ALPHA BEFORE:    3.5298378883895060E-002
  ** Opt : line minimisation
left   ...       0.00000000    -457.69812153
centre ...       0.00882459    -457.70647994
right  ...       0.01764919    -457.71397548

left   ...       0.00000000    -457.69812153
centre ...       0.00882459    -457.70647994
right  ...       0.01764919    -457.71397548
new    ...       0.08989340    -457.74314800

__s__    ...       0.07224421

left   ...       0.00882459    -457.70647994
centre ...       0.01764919    -457.71397548
right  ...       0.08989340    -457.74314800
new    ...       0.09050472    -457.74315128

__s__    ...       0.00061132

 ALPHA AFTER:    9.0504724964910480E-002
  Cycle:     61 Energy:      -457.743151  Gnorm:      0.554965  CPU:    0.286
 Line minimisation2
 ALPHA BEFORE:    9.0504724964910480E-002
  ** Opt : line minimisation
left   ...       0.00000000    -457.74315128
centre ...       0.02262618    -457.75769999
right  ...       0.04525236    -457.76942005

left   ...       0.00000000    -457.74315128
centre ...       0.02262618    -457.75769999
right  ...       0.04525236    -457.76942005
new    ...       0.12768712    -457.78632084

__s__    ...       0.08243475

left   ...       0.02262618    -457.75769999
centre ...       0.04525236    -457.76942005
right  ...       0.12768712    -457.78632084
new    ...       0.12088178    -457.78649042

__s__    ...      -0.00680533

 ALPHA AFTER:   0.12088178377334487     
  Cycle:     62 Energy:      -457.786490  Gnorm:      0.810086  CPU:    0.292
 Perform trimming
 Line minimisation2
 ALPHA BEFORE:   0.12088178377334487     
  ** Opt : line minimisation
left   ...       0.00000000    -457.78649042
centre ...       0.03022045    -457.81300386
right  ...       0.06044089    -457.83570012

left   ...       0.00000000    -457.78649042
centre ...       0.03022045    -457.81300386
right  ...       0.06044089    -457.83570012
new    ...       0.22501590    -457.89419355

__s__    ...       0.16457500

left   ...       0.03022045    -457.81300386
centre ...       0.06044089    -457.83570012
right  ...       0.22501590    -457.89419355
new    ...       0.23023349    -457.89429385

__s__    ...       0.00521760

 ALPHA AFTER:   0.23023349296043866     
  Cycle:     63 Energy:      -457.894294  Gnorm:      1.121000  CPU:    0.299
 Perform trimming
 Line minimisation2
 ALPHA BEFORE:   0.23023349296043866     
  ** Opt : line minimisation
left   ...       0.00000000    -457.89429385
centre ...       0.05755837    -458.00346196
right  ...       0.11511675    -458.09301127

left   ...       0.00000000    -457.89429385
centre ...       0.05755837    -458.00346196
right  ...       0.11511675    -458.09301127
new    ...       0.34906080    -458.24779401

__s__    ...       0.23394405

left   ...       0.05755837    -458.00346196
centre ...       0.11511675    -458.09301127
right  ...       0.34906080    -458.24779401
new    ...       0.33993356    -458.24854052

__s__    ...      -0.00912724

 ALPHA AFTER:   0.33993355967522915     
  Cycle:     64 Energy:      -458.248541  Gnorm:      1.677284  CPU:    0.305
 Perform trimming
 Line minimisation2
 ALPHA BEFORE:   0.33993355967522915     
  ** Opt : line minimisation
left   ...       0.00000000    -458.24854052
centre ...       0.08498339    -458.43925834
right  ...       0.16996678    -458.49941939

left   ...       0.00000000    -458.24854052
centre ...       0.08498339    -458.43925834
right  ...       0.16996678    -458.49941939
new    ...       0.16663575    -458.49952196

__s__    ...      -0.00333103

 ALPHA AFTER:   0.16663574980378151     
  Cycle:     65 Energy:      -458.499522  Gnorm:      1.848479  CPU:    0.310
 Perform trimming
 Line minimisation2
 ALPHA BEFORE:   0.16663574980378151     
  ** Opt : line minimisation
left   ...       0.00000000    -458.49952196
centre ...       0.04165894    -458.71815703
right  ...       0.08331787    -458.76161904

left   ...       0.00000000    -458.49952196
centre ...       0.04165894    -458.71815703
right  ...       0.08331787    -458.76161904
new    ...       0.07282436    -458.76780107

__s__    ...      -0.01049351

 ALPHA AFTER:    7.2824363003752057E-002
  Cycle:     66 Energy:      -458.767801  Gnorm:      1.435822  CPU:    0.316
 Line minimisation2
 ALPHA BEFORE:    7.2824363003752057E-002
  ** Opt : line minimisation
left   ...       0.00000000    -458.76780107
centre ...       0.01820609    -458.84545197
right  ...       0.03641218    -458.90633363

left   ...       0.00000000    -458.76780107
centre ...       0.01820609    -458.84545197
right  ...       0.03641218    -458.90633363
new    ...       0.09340740    -458.99099347

__s__    ...       0.05699521

left   ...       0.01820609    -458.84545197
centre ...       0.03641218    -458.90633363
right  ...       0.09340740    -458.99099347
new    ...       0.09495939    -458.99103292

__s__    ...       0.00155199

 ALPHA AFTER:    9.4959388948737483E-002
  Cycle:     67 Energy:      -458.991033  Gnorm:      1.713719  CPU:    0.323
 Perform trimming
 Line minimisation2
 ALPHA BEFORE:    9.4959388948737483E-002
  ** Opt : line minimisation
left   ...       0.00000000    -458.99103292
centre ...       0.02373985    -459.12954635
right  ...       0.04747969    -459.23728930

left   ...       0.00000000    -458.99103292
centre ...       0.02373985    -459.12954635
right  ...       0.04747969    -459.23728930
new    ...       0.11873492    -459.36822372

__s__    ...       0.07125522

left   ...       0.02373985    -459.12954635
centre ...       0.04747969    -459.23728930
right  ...       0.11873492    -459.36822372
new    ...       0.11542145    -459.36872426

__s__    ...      -0.00331347

 ALPHA AFTER:   0.11542145267732039     
  Cycle:     68 Energy:      -459.368724  Gnorm:      2.321448  CPU:    0.331
 Perform trimming
 Line minimisation2
 ALPHA BEFORE:   0.11542145267732039     
  ** Opt : line minimisation
left   ...       0.00000000    -459.36872426
centre ...       0.02885536    -459.61109664
right  ...       0.05771073    -459.76106818

left   ...       0.00000000    -459.36872426
centre ...       0.02885536    -459.61109664
right  ...       0.05771073    -459.76106818
new    ...       0.09011685    -459.81645777

__s__    ...       0.03240613

 ALPHA AFTER:    9.0116851419309141E-002
  Cycle:     69 Energy:      -459.816458  Gnorm:      2.306224  CPU:    0.336
 Line minimisation2
 ALPHA BEFORE:    9.0116851419309141E-002
  ** Opt : line minimisation
left   ...       0.00000000    -459.81645777
centre ...       0.02252921    -460.01586951
right  ...       0.04505843    -460.06398251

left   ...       0.00000000    -459.81645777
centre ...       0.02252921    -460.01586951
right  ...       0.04505843    -460.06398251
new    ...       0.04095811    -460.06638742

__s__    ...      -0.00410031

 ALPHA AFTER:    4.0958110794224616E-002
  Cycle:     70 Energy:      -460.066387  Gnorm:      1.398906  CPU:    0.342
 Line minimisation2
 ALPHA BEFORE:    4.0958110794224616E-002
  ** Opt : line minimisation
left   ...       0.00000000    -460.06638742
centre ...       0.01023953    -460.10926622
right  ...       0.02047906    -460.14551939

left   ...       0.00000000    -460.06638742
centre ...       0.01023953    -460.10926622
right  ...       0.02047906    -460.14551939
new    ...       0.07138651    -460.22663901

__s__    ...       0.05090745

left   ...       0.01023953    -460.10926622
centre ...       0.02047906    -460.14551939
right  ...       0.07138651    -460.22663901
new    ...       0.07095436    -460.22665366

__s__    ...      -0.00043214

 ALPHA AFTER:    7.0954363063122167E-002
  Cycle:     71 Energy:      -460.226654  Gnorm:      0.843231  CPU:    0.349
 Line minimisation2
 ALPHA BEFORE:    7.0954363063122167E-002
  ** Opt : line minimisation
left   ...       0.00000000    -460.22665366
centre ...       0.01773859    -460.25317632
right  ...       0.03547718    -460.27523318

left   ...       0.00000000    -460.22665366
centre ...       0.01773859    -460.25317632
right  ...       0.03547718    -460.27523318
new    ...       0.11422025    -460.31628222

__s__    ...       0.07874307

left   ...       0.01773859    -460.25317632
centre ...       0.03547718    -460.27523318
right  ...       0.11422025    -460.31628222
new    ...       0.10967332    -460.31642865

__s__    ...      -0.00454693

 ALPHA AFTER:   0.10967331818190691     
  Cycle:     72 Energy:      -460.316429  Gnorm:      0.871612  CPU:    0.355
 Line minimisation2
 ALPHA BEFORE:   0.10967331818190691     
  ** Opt : line minimisation
left   ...       0.00000000    -460.31642865
centre ...       0.02741833    -460.35635662
right  ...       0.05483666    -460.38039680

left   ...       0.00000000    -460.31642865
centre ...       0.02741833    -460.35635662
right  ...       0.05483666    -460.38039680
new    ...       0.08261479    -460.38802326

__s__    ...       0.02777813

 ALPHA AFTER:    8.2614791813977156E-002
  Cycle:     73 Energy:      -460.388023  Gnorm:      0.988127  CPU:    0.361
 Line minimisation2
 ALPHA BEFORE:    8.2614791813977156E-002
  ** Opt : line minimisation
left   ...       0.00000000    -460.38802326
centre ...       0.02065370    -460.42922851
right  ...       0.04130740    -460.46191875

left   ...       0.00000000    -460.38802326
centre ...       0.02065370    -460.42922851
right  ...       0.04130740    -460.46191875
new    ...       0.11027287    -460.50973951

__s__    ...       0.06896548

left   ...       0.02065370    -460.42922851
centre ...       0.04130740    -460.46191875
right  ...       0.11027287    -460.50973951
new    ...       0.11072582    -460.50974310

__s__    ...       0.00045295

 ALPHA AFTER:   0.11072581770647934     
  Cycle:     74 Energy:      -460.509743  Gnorm:      0.700351  CPU:    0.367
 Line minimisation2
 ALPHA BEFORE:   0.11072581770647934     
  ** Opt : line minimisation
left   ...       0.00000000    -460.50974310
centre ...       0.02768145    -460.53684305
right  ...       0.05536291    -460.55560262

left   ...       0.00000000    -460.50974310
centre ...       0.02768145    -460.53684305
right  ...       0.05536291    -460.55560262
new    ...       0.10378461    -460.56878766

__s__    ...       0.04842170

left   ...       0.02768145    -460.53684305
centre ...       0.05536291    -460.55560262
right  ...       0.10378461    -460.56878766
new    ...       0.10513210    -460.56879092

__s__    ...       0.00134749

 ALPHA AFTER:   0.10513209737345676     
  Cycle:     75 Energy:      -460.568791  Gnorm:      1.096004  CPU:    0.374
 Perform trimming
 Line minimisation2
 ALPHA BEFORE:   0.10513209737345676     
  ** Opt : line minimisation
left   ...       0.00000000    -460.56879092
centre ...       0.02628302    -460.60690813
right  ...       0.05256605    -460.63884418

left   ...       0.00000000    -460.56879092
centre ...       0.02628302    -460.60690813
right  ...       0.05256605    -460.63884418
new    ...       0.17522052    -460.70504890

__s__    ...       0.12265447

left   ...       0.02628302    -460.60690813
centre ...       0.05256605    -460.63884418
right  ...       0.17522052    -460.70504890
new    ...       0.17341454    -460.70506928

__s__    ...      -0.00180598

 ALPHA AFTER:   0.17341454187839359     
  Cycle:     76 Energy:      -460.705069  Gnorm:      0.826861  CPU:    0.380
 Line minimisation2
 ALPHA BEFORE:   0.17341454187839359     
  ** Opt : line minimisation
left   ...       0.00000000    -460.70506928
centre ...       0.04335364    -460.76491517
right  ...       0.08670727    -460.80921075

left   ...       0.00000000    -460.70506928
centre ...       0.04335364    -460.76491517
right  ...       0.08670727    -460.80921075
new    ...       0.18852477    -460.85040463

__s__    ...       0.10181750

left   ...       0.04335364    -460.76491517
centre ...       0.08670727    -460.80921075
right  ...       0.18852477    -460.85040463
new    ...       0.18520162    -460.85028299

__s__    ...      -0.00332314

 ALPHA AFTER:   0.18852476714341129     
  Cycle:     77 Energy:      -460.850405  Gnorm:      0.773801  CPU:    0.387
 Line minimisation2
 ALPHA BEFORE:   0.18852476714341129     
  ** Opt : line minimisation
left   ...       0.00000000    -460.85040463
centre ...       0.04713119    -460.89624466
right  ...       0.09426238    -460.90924530

left   ...       0.00000000    -460.85040463
centre ...       0.04713119    -460.89624466
right  ...       0.09426238    -460.90924530
new    ...       0.08935534    -460.90943476

__s__    ...      -0.00490704

 ALPHA AFTER:    8.9355342730071327E-002
  Cycle:     78 Energy:      -460.909435  Gnorm:      0.960648  CPU:    0.393
 Perform trimming
 Line minimisation2
 ALPHA BEFORE:    8.9355342730071327E-002
  ** Opt : line minimisation
left   ...       0.00000000    -460.90943476
centre ...       0.02233884    -460.94787352
right  ...       0.04467767    -460.97495578

left   ...       0.00000000    -460.90943476
centre ...       0.02233884    -460.94787352
right  ...       0.04467767    -460.97495578
new    ...       0.08678047    -460.99448714

__s__    ...       0.04210280

left   ...       0.02233884    -460.94787352
centre ...       0.04467767    -460.97495578
right  ...       0.08678047    -460.99448714
new    ...       0.08570005    -460.99449475

__s__    ...      -0.00108042

 ALPHA AFTER:    8.5700054344180862E-002
  Cycle:     79 Energy:      -460.994495  Gnorm:      0.922562  CPU:    0.399
 Line minimisation2
 ALPHA BEFORE:    8.5700054344180862E-002
  ** Opt : line minimisation
left   ...       0.00000000    -460.99449475
centre ...       0.02142501    -461.02725930
right  ...       0.04285003    -461.04189944

left   ...       0.00000000    -460.99449475
centre ...       0.02142501    -461.02725930
right  ...       0.04285003    -461.04189944
new    ...       0.04944373    -461.04286393

__s__    ...       0.00659371

 ALPHA AFTER:    4.9443734999827814E-002
  Cycle:     80 Energy:      -461.042864  Gnorm:      0.561927  CPU:    0.405
 Line minimisation2
 ALPHA BEFORE:    4.9443734999827814E-002
  ** Opt : line minimisation
left   ...       0.00000000    -461.04286393
centre ...       0.01236093    -461.05082246
right  ...       0.02472187    -461.05682176

left   ...       0.00000000    -461.04286393
centre ...       0.01236093    -461.05082246
right  ...       0.02472187    -461.05682176
new    ...       0.05639156    -461.06307620

__s__    ...       0.03166970

left   ...       0.01236093    -461.05082246
centre ...       0.02472187    -461.05682176
right  ...       0.05639156    -461.06307620
new    ...       0.05566092    -461.06307184

__s__    ...      -0.00073064

 ALPHA AFTER:    5.6391564460278237E-002
  Cycle:     81 Energy:      -461.063076  Gnorm:      0.472087  CPU:    0.411
 Line minimisation2
 ALPHA BEFORE:    5.6391564460278237E-002
  ** Opt : line minimisation
left   ...       0.00000000    -461.06307620
centre ...       0.01409789    -461.06992336
right  ...       0.02819578    -461.07615616

left   ...       0.00000000    -461.06307620
centre ...       0.01409789    -461.06992336
right  ...       0.02819578    -461.07615616
new    ...       0.16417393    -461.10459153

__s__    ...       0.13597814

left   ...       0.01409789    -461.06992336
centre ...       0.02819578    -461.07615616
right  ...       0.16417393    -461.10459153
new    ...       0.16353377    -461.10459000

__s__    ...      -0.00064015

 ALPHA AFTER:   0.16417392712424328     
  Cycle:     82 Energy:      -461.104592  Gnorm:      0.488580  CPU:    0.418
 Line minimisation2
 ALPHA BEFORE:   0.16417392712424328     
  ** Opt : line minimisation
left   ...       0.00000000    -461.10459153
centre ...       0.04104348    -461.12498434
right  ...       0.08208696    -461.14129399

left   ...       0.00000000    -461.10459153
centre ...       0.04104348    -461.12498434
right  ...       0.08208696    -461.14129399
new    ...       0.22550827    -461.16603642

__s__    ...       0.14342130

left   ...       0.04104348    -461.12498434
centre ...       0.08208696    -461.14129399
right  ...       0.22550827    -461.16603642
new    ...       0.22455984    -461.16603437

__s__    ...      -0.00094843

 ALPHA AFTER:   0.22550826610978858     
  Cycle:     83 Energy:      -461.166036  Gnorm:      0.777107  CPU:    0.425
 Perform trimming
 Line minimisation2
 ALPHA BEFORE:   0.22550826610978858     
  ** Opt : line minimisation
left   ...       0.00000000    -461.16603642
centre ...       0.05637707    -461.19524315
right  ...       0.11275413    -461.19591008

left   ...       0.00000000    -461.16603642
centre ...       0.05637707    -461.19524315
right  ...       0.11275413    -461.19591008
new    ...       0.08588303    -461.19917052

__s__    ...      -0.02687110

 ALPHA AFTER:    8.5883032967354278E-002
  Cycle:     84 Energy:      -461.199171  Gnorm:      0.462682  CPU:    0.430
 Line minimisation2
 ALPHA BEFORE:    8.5883032967354278E-002
  ** Opt : line minimisation
left   ...       0.00000000    -461.19917052
centre ...       0.02147076    -461.20911475
right  ...       0.04294152    -461.21771420

left   ...       0.00000000    -461.19917052
centre ...       0.02147076    -461.20911475
right  ...       0.04294152    -461.21771420
new    ...       0.16950436    -461.24102676

__s__    ...       0.12656284

left   ...       0.02147076    -461.20911475
centre ...       0.04294152    -461.21771420
right  ...       0.16950436    -461.24102676
new    ...       0.16924814    -461.24102612

__s__    ...      -0.00025621

 ALPHA AFTER:   0.16950435722621279     
  Cycle:     85 Energy:      -461.241027  Gnorm:      0.693485  CPU:    0.437
 Perform trimming
 Line minimisation2
 ALPHA BEFORE:   0.16950435722621279     
  ** Opt : line minimisation
left   ...       0.00000000    -461.24102676
centre ...       0.04237609    -461.26242404
right  ...       0.08475218    -461.27527693

left   ...       0.00000000    -461.24102676
centre ...       0.04237609    -461.26242404
right  ...       0.08475218    -461.27527693
new    ...       0.12730836    -461.28007838

__s__    ...       0.04255618

 ALPHA AFTER:   0.12730835950033495     
  Cycle:     86 Energy:      -461.280078  Gnorm:      0.614583  CPU:    0.442
 Line minimisation2
 ALPHA BEFORE:   0.12730835950033495     
  ** Opt : line minimisation
left   ...       0.00000000    -461.28007838
centre ...       0.03182709    -461.30351984
right  ...       0.06365418    -461.31833613

left   ...       0.00000000    -461.28007838
centre ...       0.03182709    -461.30351984
right  ...       0.06365418    -461.31833613
new    ...       0.10241306    -461.32491381

__s__    ...       0.03875888

 ALPHA AFTER:   0.10241306024301920     
  Cycle:     87 Energy:      -461.324914  Gnorm:      0.565866  CPU:    0.448
 Line minimisation2
 ALPHA BEFORE:   0.10241306024301920     
  ** Opt : line minimisation
left   ...       0.00000000    -461.32491381
centre ...       0.02560327    -461.34029799
right  ...       0.05120653    -461.34816612

left   ...       0.00000000    -461.32491381
centre ...       0.02560327    -461.34029799
right  ...       0.05120653    -461.34816612
new    ...       0.06520750    -461.34928329

__s__    ...       0.01400097

 ALPHA AFTER:    6.5207498200289829E-002
  Cycle:     88 Energy:      -461.349283  Gnorm:      0.499951  CPU:    0.453
 Line minimisation2
 ALPHA BEFORE:    6.5207498200289829E-002
  ** Opt : line minimisation
left   ...       0.00000000    -461.34928329
centre ...       0.01630187    -461.35825112
right  ...       0.03260375    -461.36625963

left   ...       0.00000000    -461.34928329
centre ...       0.01630187    -461.35825112
right  ...       0.03260375    -461.36625963
new    ...       0.16054310    -461.40210669

__s__    ...       0.12793936

left   ...       0.01630187    -461.35825112
centre ...       0.03260375    -461.36625963
right  ...       0.16054310    -461.40210669
new    ...       0.19230857    -461.40333721

__s__    ...       0.03176547

 ALPHA AFTER:   0.19230857307316918     
  Cycle:     89 Energy:      -461.403337  Gnorm:      0.692345  CPU:    0.462
 Line minimisation2
 ALPHA BEFORE:   0.19230857307316918     
  ** Opt : line minimisation
left   ...       0.00000000    -461.40333721
centre ...       0.04807714    -461.43780597
right  ...       0.09615429    -461.43529077

left   ...       0.00000000    -461.40333721
centre ...       0.04807714    -461.43780597
right  ...       0.09615429    -461.43529077
new    ...       0.06884609    -461.44122137

__s__    ...      -0.02730819

 ALPHA AFTER:    6.8846093235568936E-002
  Cycle:     90 Energy:      -461.441221  Gnorm:      0.358248  CPU:    0.468
 Line minimisation2
 ALPHA BEFORE:    6.8846093235568936E-002
  ** Opt : line minimisation
left   ...       0.00000000    -461.44122137
centre ...       0.01721152    -461.44570056
right  ...       0.03442305    -461.44906486

left   ...       0.00000000    -461.44122137
centre ...       0.01721152    -461.44570056
right  ...       0.03442305    -461.44906486
new    ...       0.07775510    -461.45238999

__s__    ...       0.04333205

left   ...       0.01721152    -461.44570056
centre ...       0.03442305    -461.44906486
right  ...       0.07775510    -461.45238999
new    ...       0.07565358    -461.45238523

__s__    ...      -0.00210152

 ALPHA AFTER:    7.7755097814527885E-002
  Cycle:     91 Energy:      -461.452390  Gnorm:      0.379693  CPU:    0.475
 Line minimisation2
 ALPHA BEFORE:    7.7755097814527885E-002
  ** Opt : line minimisation
left   ...       0.00000000    -461.45238999
centre ...       0.01943877    -461.45808798
right  ...       0.03887755    -461.46244743

left   ...       0.00000000    -461.45238999
centre ...       0.01943877    -461.45808798
right  ...       0.03887755    -461.46244743
new    ...       0.09246742    -461.46763474

__s__    ...       0.05358987

left   ...       0.01943877    -461.45808798
centre ...       0.03887755    -461.46244743
right  ...       0.09246742    -461.46763474
new    ...       0.09340040    -461.46763171

__s__    ...       0.00093298

 ALPHA AFTER:    9.2467416863849336E-002
  Cycle:     92 Energy:      -461.467635  Gnorm:      0.344548  CPU:    0.481
 Line minimisation2
 ALPHA BEFORE:    9.2467416863849336E-002
  ** Opt : line minimisation
left   ...       0.00000000    -461.46763474
centre ...       0.02311685    -461.47347067
right  ...       0.04623371    -461.47847624

left   ...       0.00000000    -461.46763474
centre ...       0.02311685    -461.47347067
right  ...       0.04623371    -461.47847624
new    ...       0.17402755    -461.49154480

__s__    ...       0.12779384

left   ...       0.02311685    -461.47347067
centre ...       0.04623371    -461.47847624
right  ...       0.17402755    -461.49154480
new    ...       0.17765713    -461.49155198

__s__    ...       0.00362958

 ALPHA AFTER:   0.17765712944700454     
  Cycle:     93 Energy:      -461.491552  Gnorm:      0.454695  CPU:    0.488
 Perform trimming
 Line minimisation2
 ALPHA BEFORE:   0.17765712944700454     
  ** Opt : line minimisation
left   ...       0.00000000    -461.49155198
centre ...       0.04441428    -461.50308930
right  ...       0.08882856    -461.50478370

left   ...       0.00000000    -461.49155198
centre ...       0.04441428    -461.50308930
right  ...       0.08882856    -461.50478370
new    ...       0.07426705    -461.50531133

__s__    ...      -0.01456152

 ALPHA AFTER:    7.4267046808289328E-002
  Cycle:     94 Energy:      -461.505311  Gnorm:      0.418598  CPU:    0.495
 Line minimisation2
 ALPHA BEFORE:    7.4267046808289328E-002
  ** Opt : line minimisation
left   ...       0.00000000    -461.50531133
centre ...       0.01856676    -461.51235623
right  ...       0.03713352    -461.51858158

left   ...       0.00000000    -461.50531133
centre ...       0.01856676    -461.51235623
right  ...       0.03713352    -461.51858158
new    ...       0.16888360    -461.53892471

__s__    ...       0.13175008

left   ...       0.01856676    -461.51235623
centre ...       0.03713352    -461.51858158
right  ...       0.16888360    -461.53892471
new    ...       0.16716411    -461.53891851

__s__    ...      -0.00171949

 ALPHA AFTER:   0.16888360176973363     
  Cycle:     95 Energy:      -461.538925  Gnorm:      0.560665  CPU:    0.502
 Perform trimming
 Line minimisation2
 ALPHA BEFORE:   0.16888360176973363     
  ** Opt : line minimisation
left   ...       0.00000000    -461.53892471
centre ...       0.04222090    -461.55669717
right  ...       0.08444180    -461.57056137

left   ...       0.00000000    -461.53892471
centre ...       0.04222090    -461.55669717
right  ...       0.08444180    -461.57056137
new    ...       0.21310637    -461.58777715

__s__    ...       0.12866457

left   ...       0.04222090    -461.55669717
centre ...       0.08444180    -461.57056137
right  ...       0.21310637    -461.58777715
new    ...       0.20753221    -461.58780715

__s__    ...      -0.00557416

 ALPHA AFTER:   0.20753220581872103     
  Cycle:     96 Energy:      -461.587807  Gnorm:      0.826462  CPU:    0.509
 Perform trimming
 Line minimisation2
 ALPHA BEFORE:   0.20753220581872103     
  ** Opt : line minimisation
left   ...       0.00000000    -461.58780715
centre ...       0.05188305    -461.63126044
right  ...       0.10376610    -461.65431028

left   ...       0.00000000    -461.58780715
centre ...       0.05188305    -461.63126044
right  ...       0.10376610    -461.65431028
new    ...       0.13643705    -461.65842940

__s__    ...       0.03267095

 ALPHA AFTER:   0.13643704963814207     
  Cycle:     97 Energy:      -461.658429  Gnorm:      0.846322  CPU:    0.517
 Line minimisation2
 ALPHA BEFORE:   0.13643704963814207     
  ** Opt : line minimisation
left   ...       0.00000000    -461.65842940
centre ...       0.03410926    -461.70157704
right  ...       0.06821852    -461.71889566

left   ...       0.00000000    -461.65842940
centre ...       0.03410926    -461.70157704
right  ...       0.06821852    -461.71889566
new    ...       0.07403450    -461.71932918

__s__    ...       0.00581597

 ALPHA AFTER:    7.4034495934043099E-002
  Cycle:     98 Energy:      -461.719329  Gnorm:      0.713499  CPU:    0.527
 Line minimisation2
 ALPHA BEFORE:    7.4034495934043099E-002
  ** Opt : line minimisation
left   ...       0.00000000    -461.71932918
centre ...       0.01850862    -461.73866770
right  ...       0.03701725    -461.75363074

left   ...       0.00000000    -461.71932918
centre ...       0.01850862    -461.73866770
right  ...       0.03701725    -461.75363074
new    ...       0.09105772    -461.77082316

__s__    ...       0.05404047

left   ...       0.01850862    -461.73866770
centre ...       0.03701725    -461.75363074
right  ...       0.09105772    -461.77082316
new    ...       0.08757504    -461.77090283

__s__    ...      -0.00348268

 ALPHA AFTER:    8.7575040566677212E-002
  Cycle:     99 Energy:      -461.770903  Gnorm:      0.547905  CPU:    0.536
 Line minimisation2
 ALPHA BEFORE:    8.7575040566677212E-002
  ** Opt : line minimisation
left   ...       0.00000000    -461.77090283
centre ...       0.02189376    -461.78358945
right  ...       0.04378752    -461.79143799

left   ...       0.00000000    -461.77090283
centre ...       0.02189376    -461.78358945
right  ...       0.04378752    -461.79143799
new    ...       0.06835757    -461.79446998

__s__    ...       0.02457005

 ALPHA AFTER:    6.8357568392340889E-002
  Cycle:    100 Energy:      -461.794470  Gnorm:      0.514118  CPU:    0.544
 Line minimisation2
 ALPHA BEFORE:    6.8357568392340889E-002
  ** Opt : line minimisation
left   ...       0.00000000    -461.79446998
centre ...       0.01708939    -461.80350461
right  ...       0.03417878    -461.80989144

[...]

__s__    ...       0.01704018

left   ...      -0.01411222    -465.37899940
centre ...       0.00000000    -465.37900051
right  ...       0.06636286    -465.37883051
new    ...      -0.00585865    -465.37900005

__s__    ...       0.00825356

left   ...      -0.00585865    -465.37900005
centre ...       0.00000000    -465.37900051
right  ...       0.06636286    -465.37883051
new    ...      -0.00185934    -465.37900037

__s__    ...       0.00399932

left   ...      -0.00185934    -465.37900037
centre ...       0.00000000    -465.37900051
right  ...       0.06636286    -465.37883051
new    ...       0.00007894    -465.37900052

__s__    ...       0.00193828

 ALPHA AFTER:    7.8938702064137913E-005
  Cycle:    336 Energy:      -465.379001  Gnorm:      0.007519  CPU:    2.951
 Line minimisation2
 ALPHA BEFORE:    7.8952116927739788E-005
  ** Opt : line minimisation
left   ...       0.00000000    -465.37900052
centre ...       0.00001974    -465.37900052
right  ...       0.00003948    -465.37900052

left   ...       0.00000000    -465.37900052
centre ...       0.00001974    -465.37900052
right  ...       0.00003948    -465.37900052
new    ...       0.00007895    -465.37900052

__s__    ...       0.00003948

 ALPHA AFTER:    7.8952116927739788E-005
  Cycle:    337 Energy:      -465.379001  Gnorm:      0.007518  CPU:    2.961
 Line minimisation2
 ALPHA BEFORE:    7.8965533321303000E-005
  ** Opt : line minimisation
left   ...       0.00000000    -465.37900052
centre ...       0.00001974    -465.37900053
right  ...       0.00003948    -465.37900053

left   ...       0.00000000    -465.37900052
centre ...       0.00001974    -465.37900053
right  ...       0.00003948    -465.37900053
new    ...       0.00007897    -465.37900053

__s__    ...       0.00003948

 ALPHA AFTER:    7.8965533321303014E-005
  Cycle:    338 Energy:      -465.379001  Gnorm:      0.007517  CPU:    2.970
 Line minimisation2
 ALPHA BEFORE:    7.8978951145545315E-005
  ** Opt : line minimisation
left   ...       0.00000000    -465.37900053
centre ...       0.00001974    -465.37900053
right  ...       0.00003949    -465.37900053

left   ...       0.00000000    -465.37900053
centre ...       0.00001974    -465.37900053
right  ...       0.00003949    -465.37900053
new    ...       0.00007898    -465.37900054

__s__    ...       0.00003949

 ALPHA AFTER:    7.8978951145545329E-005
  Cycle:    339 Energy:      -465.379001  Gnorm:      0.007517  CPU:    2.980
 Line minimisation2
 ALPHA BEFORE:    7.8992370185727631E-005
  ** Opt : line minimisation
left   ...       0.00000000    -465.37900054
centre ...       0.00001975    -465.37900054
right  ...       0.00003950    -465.37900054

left   ...       0.00000000    -465.37900054
centre ...       0.00001975    -465.37900054
right  ...       0.00003950    -465.37900054
new    ...       0.34579952    -465.37884748

__s__    ...       0.34576002

left   ...       0.00001975    -465.37900054
centre ...       0.00003950    -465.37900054
right  ...       0.34579952    -465.37884748
new    ...       0.02589602    -465.37882753

__s__    ...      -0.31990350

left   ...       0.00001975    -465.37900054
centre ...       0.00003950    -465.37900054
right  ...       0.02589602    -465.37882753
new    ...       0.00017848    -465.37900055

__s__    ...      -0.02571753

 ALPHA AFTER:    1.7848435285666361E-004
  Cycle:    340 Energy:      -465.379001  Gnorm:      0.007515  CPU:    2.996
 Line minimisation2
 ALPHA BEFORE:    1.7859206697549434E-004
  ** Opt : line minimisation
left   ...       0.00000000    -465.37900055
centre ...       0.00004465    -465.37900055
right  ...       0.00008930    -465.37900056

left   ...       0.00000000    -465.37900055
centre ...       0.00004465    -465.37900055
right  ...       0.00008930    -465.37900056
new    ...       0.99837550    -465.37886126

__s__    ...       0.99828621

left   ...       0.00004465    -465.37900055
centre ...       0.00008930    -465.37900056
right  ...       0.99837550    -465.37886126
new    ...       0.17880093    -465.37883815

__s__    ...      -0.81957457

left   ...       0.00004465    -465.37900055
centre ...       0.00008930    -465.37900056
right  ...       0.17880093    -465.37883815
new    ...       0.00711793    -465.37882610

__s__    ...      -0.17168301

left   ...       0.00004465    -465.37900055
centre ...       0.00008930    -465.37900056
right  ...       0.00711793    -465.37882610
new    ...       0.00007803    -465.37900056

__s__    ...      -0.00703990

 ALPHA AFTER:    8.9296033487747169E-005
  Cycle:    341 Energy:      -465.379001  Gnorm:      0.007514  CPU:    3.013
  ** Hessian calculated **
 Line minimisation2
 ALPHA BEFORE:    1.0000000000000000     
  ** Opt : line minimisation
left   ...       0.00000000    -465.37900056
centre ...       0.25000000    -465.37901459
right  ...       0.50000000    -465.37902849

left   ...       0.00000000    -465.37900056
centre ...       0.25000000    -465.37901459
right  ...       0.50000000    -465.37902849
new    ...       1.50000000    -465.37908272

__s__    ...       1.00000000

left   ...       0.25000000    -465.37901459
centre ...       0.50000000    -465.37902849
right  ...       1.50000000    -465.37908272
new    ...       2.50000000    -465.37913478

__s__    ...       1.00000000

left   ...       0.50000000    -465.37902849
centre ...       1.50000000    -465.37908272
right  ...       2.50000000    -465.37913478
new    ...       3.50000000    -465.37918469

__s__    ...       1.00000000

left   ...       1.50000000    -465.37908272
centre ...       2.50000000    -465.37913478
right  ...       3.50000000    -465.37918469
new    ...       4.50000000    -465.37923244

__s__    ...       1.00000000

left   ...       2.50000000    -465.37913478
centre ...       3.50000000    -465.37918469
right  ...       4.50000000    -465.37923244
new    ...       5.50000000    -465.37927804

__s__    ...       1.00000000

 ALPHA AFTER:    5.5000000000000000     
  Cycle:    342 Energy:      -465.379278  Gnorm:      0.012958  CPU:    3.036
 Line minimisation2
 ALPHA BEFORE:    3.6666666666666670     
  ** Opt : line minimisation
left   ...       0.00000000    -465.37927804
centre ...       0.91666667    -465.37934086
right  ...       1.83333333    -465.37940066

left   ...       0.00000000    -465.37927804
centre ...       0.91666667    -465.37934086
right  ...       1.83333333    -465.37940066
new    ...       2.83333333    -465.37946248

__s__    ...       1.00000000

left   ...       0.91666667    -465.37934086
centre ...       1.83333333    -465.37940066
right  ...       2.83333333    -465.37946248
new    ...       3.83333333    -465.37952072

__s__    ...       1.00000000

left   ...       1.83333333    -465.37940066
centre ...       2.83333333    -465.37946248
right  ...       3.83333333    -465.37952072
new    ...       4.83333333    -465.37957542

__s__    ...       1.00000000

 ALPHA AFTER:    4.8333333333333339     
  Cycle:    343 Energy:      -465.379575  Gnorm:      0.022394  CPU:    3.051
 Line minimisation2
 ALPHA BEFORE:    3.2222222222222223     
  ** Opt : line minimisation
left   ...       0.00000000    -465.37957542
centre ...       0.80555556    -465.37963838
right  ...       1.61111111    -465.37969651

left   ...       0.00000000    -465.37957542
centre ...       0.80555556    -465.37963838
right  ...       1.61111111    -465.37969651
new    ...       2.61111111    -465.37958698

__s__    ...       1.00000000

left   ...       0.80555556    -465.37963838
centre ...       1.61111111    -465.37969651
right  ...       2.61111111    -465.37958698
new    ...       1.61111111    -465.37969651

__s__    ...      -1.00000000

 ALPHA AFTER:    1.6111111111111112     
  Cycle:    344 Energy:      -465.379697  Gnorm:      0.027098  CPU:    3.075
 Line minimisation2
 ALPHA BEFORE:    1.0740740740740742     
  ** Opt : line minimisation
left   ...       0.00000000    -465.37969651
centre ...       0.26851852    -465.37972429
right  ...       0.53703704    -465.37975090

left   ...       0.00000000    -465.37969651
centre ...       0.26851852    -465.37972429
right  ...       0.53703704    -465.37975090
new    ...       1.53703704    -465.37966487

__s__    ...       1.00000000

left   ...       0.26851852    -465.37972429
centre ...       0.53703704    -465.37975090
right  ...       1.53703704    -465.37966487
new    ...       0.74232715    -465.37959547

__s__    ...      -0.79470989

left   ...       0.26851852    -465.37972429
centre ...       0.53703704    -465.37975090
right  ...       0.74232715    -465.37959547
new    ...       0.43020096    -465.37974045

__s__    ...      -0.31212619

left   ...       0.43020096    -465.37974045
centre ...       0.53703704    -465.37975090
right  ...       0.74232715    -465.37959547
new    ...       0.50147482    -465.37974744

__s__    ...       0.07127386

 ALPHA AFTER:   0.53703703703703709     
  Cycle:    345 Energy:      -465.379751  Gnorm:      0.029419  CPU:    3.099
 Line minimisation2
 ALPHA BEFORE:   0.35802469135802473     
  ** Opt : line minimisation
left   ...       0.00000000    -465.37975090
centre ...       0.08950617    -465.37958889
right  ...      -0.08950617    -465.37973763

left   ...      -0.08950617    -465.37973763
centre ...       0.00000000    -465.37975090
right  ...       0.08950617    -465.37958889
new    ...      -0.03797725    -465.37974531

__s__    ...       0.05152893

left   ...      -0.03797725    -465.37974531
centre ...       0.00000000    -465.37975090
right  ...       0.08950617    -465.37958889
new    ...      -0.01419079    -465.37974882

__s__    ...       0.02378645

left   ...      -0.01419079    -465.37974882
centre ...       0.00000000    -465.37975090
right  ...       0.08950617    -465.37958889
new    ...      -0.00320313    -465.37975043

__s__    ...       0.01098767

left   ...      -0.00320313    -465.37975043
centre ...       0.00000000    -465.37975090
right  ...       0.08950617    -465.37958889
new    ...       0.00187401    -465.37957618

__s__    ...       0.00507714

left   ...      -0.00320313    -465.37975043
centre ...       0.00000000    -465.37975090
right  ...       0.00187401    -465.37957618
new    ...      -0.00159758    -465.37975067

__s__    ...      -0.00347158

left   ...      -0.00159758    -465.37975067
centre ...       0.00000000    -465.37975090
right  ...       0.00187401    -465.37957618
new    ...      -0.00079606    -465.37975078

__s__    ...       0.00080151

 ALPHA AFTER:   -7.9606118244228516E-004
  Cycle:    346 Energy:      -465.379751  Gnorm:      0.029419  CPU:    3.120
  ** Hessian calculated **
 Line minimisation2
 ALPHA BEFORE:    1.0000000000000000     
  ** Opt : line minimisation
left   ...       0.00000000    -465.37975090
centre ...       0.25000000    -465.37972604
right  ...      -0.25000000    -465.37950462

left   ...      -0.25000000    -465.37950462
centre ...       0.00000000    -465.37975090
right  ...       0.25000000    -465.37972604
new    ...       0.10207989    -465.37964883

__s__    ...       0.35207989

left   ...      -0.25000000    -465.37950462
centre ...       0.00000000    -465.37975090
right  ...       0.10207989    -465.37964883
new    ...      -0.03763694    -465.37971998

__s__    ...      -0.13971683

left   ...      -0.03763694    -465.37971998
centre ...       0.00000000    -465.37975090
right  ...       0.10207989    -465.37964883
new    ...       0.01268860    -465.37958584

__s__    ...       0.05032554

left   ...      -0.03763694    -465.37971998
centre ...       0.00000000    -465.37975090
right  ...       0.01268860    -465.37958584
new    ...      -0.01732382    -465.37973694

__s__    ...      -0.03001242

left   ...      -0.01732382    -465.37973694
centre ...       0.00000000    -465.37975090
right  ...       0.01268860    -465.37958584
new    ...      -0.00778654    -465.37974468

__s__    ...       0.00953728

left   ...      -0.00778654    -465.37974468
centre ...       0.00000000    -465.37975090
right  ...       0.01268860    -465.37958584
new    ...      -0.00330120    -465.37974828

__s__    ...       0.00448534

 ALPHA AFTER:   -3.3011979937432115E-003
  Cycle:    347 Energy:      -465.379751  Gnorm:      0.029419  CPU:    3.145
  ** Hessian calculated **
 Line minimisation2
 ALPHA BEFORE:    1.0000000000000000     
  ** Opt : line minimisation
left   ...       0.00000000    -465.37975090
centre ...       0.25000000    -465.37972604
right  ...      -0.25000000    -465.37950462

left   ...      -0.25000000    -465.37950462
centre ...       0.00000000    -465.37975090
right  ...       0.25000000    -465.37972604
new    ...       0.10207989    -465.37964883

__s__    ...       0.35207989

left   ...      -0.25000000    -465.37950462
centre ...       0.00000000    -465.37975090
right  ...       0.10207989    -465.37964883
new    ...      -0.03763694    -465.37971998

__s__    ...      -0.13971683

left   ...      -0.03763694    -465.37971998
centre ...       0.00000000    -465.37975090
right  ...       0.10207989    -465.37964883
new    ...       0.01268860    -465.37958584

__s__    ...       0.05032554

left   ...      -0.03763694    -465.37971998
centre ...       0.00000000    -465.37975090
right  ...       0.01268860    -465.37958584
new    ...      -0.01732382    -465.37973694

__s__    ...      -0.03001242

left   ...      -0.01732382    -465.37973694
centre ...       0.00000000    -465.37975090
right  ...       0.01268860    -465.37958584
new    ...      -0.00778654    -465.37974468

__s__    ...       0.00953728

left   ...      -0.00778654    -465.37974468
centre ...       0.00000000    -465.37975090
right  ...       0.01268860    -465.37958584
new    ...      -0.00330120    -465.37974828

__s__    ...       0.00448534

 ALPHA AFTER:   -3.3011979937432115E-003


  **** Conditions for a minimum have not been satisfied. However ****
  **** no lower point can be found - treat results with caution  ****
  **** unless gradient norm is small (less than 0.1)             ****


  Final energy =    -465.37975090 eV
  Final Gnorm  =       0.02941926

  Components of energy : 

--------------------------------------------------------------------------------
  Interatomic potentials     =          71.96940969 eV    
  Monopole - monopole (real) =        -280.65263771 eV    
  Monopole - monopole (recip)=        -256.69652288 eV    
  Monopole - monopole (total)=        -537.34916059 eV    
--------------------------------------------------------------------------------
  Total lattice energy       =        -465.37975090 eV    
--------------------------------------------------------------------------------
  Total lattice energy       =          -44902.0320 kJ/(mole unit cells)
--------------------------------------------------------------------------------

  Final fractional coordinates of atoms :

--------------------------------------------------------------------------------
   No.  Atomic        x           y          z          Radius
        Label       (Frac)      (Frac)     (Frac)       (Angs) 
--------------------------------------------------------------------------------
     1  O     c     0.000000    0.333330    0.800000    0.000000
     2  O     c     0.083970    0.197184    0.621316    0.000000
     3  O     c     0.497779    0.344219    0.561352    0.000000
     4  O     c     0.996154    0.527135    0.495123    0.000000
     5  O     c     0.944434    0.706135    0.200100    0.000000
     6  O     c     0.311155    0.946514    0.757184    0.000000
     7  O     c     0.647483    0.802227    0.444716    0.000000
     8  O     c     0.242895    0.074011    0.418783    0.000000
     9  O     c     0.878275    0.460437    0.987569    0.000000
    10  Sr    c     0.880543    0.060190    0.086148    0.000000
    11  Sr    c     0.885141    0.858007    0.882023    0.000000
    12  Sr    c     0.049055    0.361591    0.303297    0.000000
    13  Ti    c     0.619456    0.320004    0.476555    0.000000
    14  Ti    c     0.149364    0.131855    0.523148    0.000000
    15  Ti    c     0.180120    0.358421    0.734607    0.000000
--------------------------------------------------------------------------------

  Final Cartesian lattice vectors (Angstroms) :

        5.776848   -0.551571   -0.907290
       -0.827357    3.315217   -0.619634
       -2.268225   -1.032723   16.997361


  Final cell parameters and derivatives :

--------------------------------------------------------------------------------
       a            5.873617 Angstrom     dE/de1(xx)    -0.196395 eV/strain
       b            3.472626 Angstrom     dE/de2(yy)    -0.162921 eV/strain
       c           17.179105 Angstrom     dE/de3(zz)    -0.438782 eV/strain
       alpha      101.681954 Degrees      dE/de4(yz)    -0.071482 eV/strain
       beta       106.084097 Degrees      dE/de5(xz)     0.223147 eV/strain
       gamma      107.242310 Degrees      dE/de6(xy)    -0.096098 eV/strain
--------------------------------------------------------------------------------

  Primitive cell volume =           305.698775 Angs**3

  Density of cell =      2.990334 g/cm**3

  Non-primitive cell volume =           305.698775 Angs**3


  Final internal derivatives :

--------------------------------------------------------------------------------
   No.  Atomic          a             b             c           Radius
        Label          (eV)          (eV)          (eV)        (eV/Angs)
--------------------------------------------------------------------------------
      1 O     c       0.000000      0.000000      0.000000      0.000000
      2 O     c       0.085218      0.012427     -0.372007      0.000000
      3 O     c       0.100480      0.004686     -0.597048      0.000000
      4 O     c       0.005213      0.030488     -0.020430      0.000000
      5 O     c      -0.003372      0.019439     -0.049196      0.000000
      6 O     c       0.043679     -0.106043      0.126287      0.000000
      7 O     c      -0.038863      0.037965      0.075246      0.000000
      8 O     c      -0.006033      0.012474      0.125408      0.000000
      9 O     c       0.004783      0.013838      0.023903      0.000000
     10 Sr    c       0.025278     -0.002491     -0.121017      0.000000
     11 Sr    c       0.041024      0.005958     -0.108799      0.000000
     12 Sr    c       0.005471     -0.004556     -0.088375      0.000000
     13 Ti    c      -0.182284     -0.026859      0.766249      0.000000
     14 Ti    c       0.102393     -0.057029      0.482207      0.000000
     15 Ti    c      -0.227948      0.067179      0.375223      0.000000
--------------------------------------------------------------------------------
  Maximum abs         0.227948      0.106043      0.766249      0.000000
--------------------------------------------------------------------------------


  Time to end of optimisation =       3.1702 seconds

 Exiting ------OPTIONS------

  Peak dynamic memory used =       0.60 MB 


  Timing analysis for GULP :

--------------------------------------------------------------------------------
  Task / Subroutine                                          Time (Seconds)
--------------------------------------------------------------------------------
  Calculation of reciprocal space energy and derivatives          0.1670
  Calculation of real space energy and derivatives                2.9690
  Calculation and manipulation of Hessian matrix                  0.0003
  Calculation of matrix inversion                                 0.0009
  Global summation overhead                                       0.0010
--------------------------------------------------------------------------------
  Total CPU time                                                  3.1702
--------------------------------------------------------------------------------


  Job Finished at 16:32.02  3rd February   2020                               

