********************************************************************************
*                       GENERAL UTILITY LATTICE PROGRAM                        *
*                                 Julian Gale                                  *
*                       Curtin Institute for Computation                       *
*                           Department of Chemistry                            *
*                    Curtin University, Western Australia                      *
********************************************************************************
* Version = 5.1.1 * Last modified =  25th August 2019                          *
********************************************************************************
*  optimise     - perform optimisation run                                     *
*  conp         - constant pressure calculation                                *
*  nosymmetry   - turn off symmetry after initial structure generation         *
*  full         - generate full unit cell when symmetry is removed             *
*  conjugate    - use conjugate gradients minimiser                            *
********************************************************************************
* ASE calculation                                                              *
********************************************************************************


  Job Started  at 16:31.06  3rd February   2020                               

  Number of CPUs =     1


  Total number of configurations input =      1

********************************************************************************
*  Input for Configuration =   1                                               *
********************************************************************************

  Formula = O9Sr3Ti3                                                    

  Number of irreducible atoms/shells =      15


  Total number atoms/shells =      15

  Dimensionality = 3               :  Bulk   



  Cartesian lattice vectors (Angstroms) :

        4.000000    0.000000    0.000000
        0.000000    4.000000    0.000000
        0.000000    0.000000    8.000000

  Cell parameters (Angstroms/Degrees):

  a =       4.0000    alpha =  90.0000
  b =       4.0000    beta  =  90.0000
  c =       8.0000    gamma =  90.0000

  Initial cell volume =         128.000000 Angs**3

  Temperature of configuration =  0.000     K 

  Pressure of configuration =         0.000 GPa 

  Fractional coordinates of asymmetric unit :

--------------------------------------------------------------------------------
   No.  Atomic       x           y          z         Charge      Occupancy
        Label      (Frac)      (Frac)     (Frac)        (e)         (Frac)  
--------------------------------------------------------------------------------
      1 O     c    0.500000    0.500000    0.750000    -2.00000    1.000000    
      2 O     c    0.500000 *  0.000000 *  0.750000 *  -2.00000    1.000000    
      3 O     c    0.000000 *  0.500000 *  0.750000 *  -2.00000    1.000000    
      4 O     c    0.000000 *  0.500000 *  0.000000 *  -2.00000    1.000000    
      5 O     c    0.000000 *  0.000000 *  0.250000 *  -2.00000    1.000000    
      6 O     c    0.500000 *  0.000000 *  0.250000 *  -2.00000    1.000000    
      7 O     c    0.500000 *  0.500000 *  0.250000 *  -2.00000    1.000000    
      8 O     c    0.500000 *  0.500000 *  0.500000 *  -2.00000    1.000000    
      9 O     c    0.500000 *  0.000000 *  0.500000 *  -2.00000    1.000000    
     10 Sr    c    0.250000 *  0.750000 *  0.375000 *   2.00000    1.000000    
     11 Sr    c    0.250000 *  0.750000 *  0.875000 *   2.00000    1.000000    
     12 Sr    c    0.250000 *  0.250000 *  0.625000 *   2.00000    1.000000    
     13 Ti    c    0.250000 *  0.750000 *  0.625000 *   4.00000    1.000000    
     14 Ti    c    0.750000 *  0.250000 *  0.875000 *   4.00000    1.000000    
     15 Ti    c    0.750000 *  0.750000 *  0.375000 *   4.00000    1.000000    
--------------------------------------------------------------------------------



********************************************************************************
*  General input information                                                   *
********************************************************************************

  Species output for all configurations : 

--------------------------------------------------------------------------------
  Species    Type    Atomic    Atomic    Charge       Radii (Angs)     Library
                     Number     Mass       (e)     Cova   Ionic  VDW   Symbol
--------------------------------------------------------------------------------
    O        Core        8      16.00  -2.000000   0.730  0.000  1.360          
    Sr       Core       38      87.62   2.000000   1.120  0.000  1.670          
    Ti       Core       22      47.88   4.000000   1.470  0.000  2.190          
--------------------------------------------------------------------------------


  Lattice summation method               =    Ewald          (3-D)
                                         =    Parry          (2-D)
                                         =    Saunders et al (1-D)
  Accuracy factor for lattice sums       =   12.000


  Time limit = Infinity

  Maximum range for interatomic potentials =    100000.000000 Angstroms

  General interatomic potentials :

--------------------------------------------------------------------------------
Atom  Types   Potential      Parameter       Value         Units   Cutoffs(Ang)
  1     2                                                            Min /  Max 
--------------------------------------------------------------------------------
O    c Sr   c Buckingham    Buckingham A     1952.3900    eV        0.000 10.000
                            Buckingham rho  0.33685000    Ang       
                            Buckingham C     19.220000    eV*Ang^6  
--------------------------------------------------------------------------------
O    c Ti   c Buckingham    Buckingham A     4590.7279    eV        0.000 10.000
                            Buckingham rho  0.26100000    Ang       
                            Buckingham C     0.0000000    eV*Ang^6  
--------------------------------------------------------------------------------
O    c O    c Buckingham    Buckingham A     1388.7700    eV        0.000 10.000
                            Buckingham rho  0.36262000    Ang       
                            Buckingham C     175.00000    eV*Ang^6  
--------------------------------------------------------------------------------
 Calling ------OPTIONS------

********************************************************************************
*  Output for configuration   1                                                *
********************************************************************************


  Components of energy : 

--------------------------------------------------------------------------------
  Interatomic potentials     =         283.74069147 eV    
  Monopole - monopole (real) =        -200.67401279 eV    
  Monopole - monopole (recip)=        -313.23454466 eV    
  Monopole - monopole (total)=        -513.90855745 eV    
--------------------------------------------------------------------------------
  Total lattice energy       =        -230.16786598 eV    
--------------------------------------------------------------------------------
  Total lattice energy       =          -22207.6806 kJ/(mole unit cells)
--------------------------------------------------------------------------------


  Number of variables =       48

  Maximum number of calculations  =          1000
  Maximum Hessian update interval =            10
  Maximum step size               =   1.000000000
  Maximum parameter tolerance     =   0.000010000
  Maximum function  tolerance     =   0.000010000
  Maximum gradient  tolerance     =   0.001000000
  Maximum gradient  component     =   0.010000000

  Cell parameters to be optimised using strains

  Conjugate gradient optimiser to be used

  Lower half triangular hessian to be used

  Minimiser to switch to BFGS with exact hessian
  When gradient norm is less than     0.100000

  Start of bulk optimisation :

  Cycle:      0 Energy:      -230.167866  Gnorm:     22.287918  CPU:    0.014
 Perform trimming
 Line minimisation2
 ALPHA BEFORE:    1.0000000000000000     
  ** Opt : line minimisation
left   ...       0.00000000    -230.16786598
centre ...       0.25000000    -291.31288697
right  ...       0.50000000    -323.60564679

left   ...       0.00000000    -230.16786598
centre ...       0.25000000    -291.31288697
right  ...       0.50000000    -323.60564679
new    ...       0.65481134    -333.87884266

__s__    ...       0.15481134

left   ...       0.25000000    -291.31288697
centre ...       0.50000000    -323.60564679
right  ...       0.65481134    -333.87884266
new    ...       0.79124407    -338.62254581

__s__    ...       0.13643273

left   ...       0.50000000    -323.60564679
centre ...       0.65481134    -333.87884266
right  ...       0.79124407    -338.62254581
new    ...       0.88330707    -340.02226173

__s__    ...       0.09206300

left   ...       0.65481134    -333.87884266
centre ...       0.79124407    -338.62254581
right  ...       0.88330707    -340.02226173
new    ...       0.92605425    -340.24616919

__s__    ...       0.04274717

 ALPHA AFTER:   0.92605424545865089     
  Cycle:      1 Energy:      -340.246169  Gnorm:     15.240717  CPU:    0.027
 Perform trimming
 Line minimisation2
 ALPHA BEFORE:   0.92605424545865089     
  ** Opt : line minimisation
left   ...       0.00000000    -340.24616919
centre ...       0.23151356    -386.54672983
right  ...       0.46302712    -388.34292258

left   ...       0.00000000    -340.24616919
centre ...       0.23151356    -386.54672983
right  ...       0.46302712    -388.34292258
new    ...       0.35661421    -392.10925495

__s__    ...      -0.10641291

left   ...       0.23151356    -386.54672983
centre ...       0.35661421    -392.10925495
right  ...       0.46302712    -388.34292258
new    ...       0.35851651    -392.10509549

__s__    ...       0.00190230

 ALPHA AFTER:   0.35661421101815116     
  Cycle:      2 Energy:      -392.109255  Gnorm:      6.444002  CPU:    0.034
 Line minimisation2
 ALPHA BEFORE:   0.35661421101815116     
  ** Opt : line minimisation
left   ...       0.00000000    -392.10925495
centre ...       0.08915355    -399.51367342
right  ...       0.17830711    -405.09719178

left   ...       0.00000000    -392.10925495
centre ...       0.08915355    -399.51367342
right  ...       0.17830711    -405.09719178
new    ...       0.40710639    -410.58642815

__s__    ...       0.22879928

left   ...       0.08915355    -399.51367342
centre ...       0.17830711    -405.09719178
right  ...       0.40710639    -410.58642815
new    ...       0.39142351    -410.63765347

__s__    ...      -0.01568288

 ALPHA AFTER:   0.39142351006182696     
  Cycle:      3 Energy:      -410.637653  Gnorm:      5.341341  CPU:    0.039
 Line minimisation2
 ALPHA BEFORE:   0.39142351006182696     
  ** Opt : line minimisation
left   ...       0.00000000    -410.63765347
centre ...       0.09785588    -416.12804132
right  ...       0.19571176    -420.35054055

left   ...       0.00000000    -410.63765347
centre ...       0.09785588    -416.12804132
right  ...       0.19571176    -420.35054055
new    ...       0.47267709    -425.83394009

__s__    ...       0.27696533

left   ...       0.09785588    -416.12804132
centre ...       0.19571176    -420.35054055
right  ...       0.47267709    -425.83394009
new    ...       0.49308341    -425.88334411

__s__    ...       0.02040632

 ALPHA AFTER:   0.49308340813776036     
  Cycle:      4 Energy:      -425.883344  Gnorm:      4.995190  CPU:    0.043
 Line minimisation2
 ALPHA BEFORE:   0.49308340813776036     
  ** Opt : line minimisation
left   ...       0.00000000    -425.88334411
centre ...       0.12327085    -431.67177297
right  ...       0.24654170    -434.73028631

left   ...       0.00000000    -425.88334411
centre ...       0.12327085    -431.67177297
right  ...       0.24654170    -434.73028631
new    ...       0.32301515    -435.09315950

__s__    ...       0.07647344

 ALPHA AFTER:   0.32301514663539105     
  Cycle:      5 Energy:      -435.093159  Gnorm:      4.405720  CPU:    0.046
 Line minimisation2
 ALPHA BEFORE:   0.32301514663539105     
  ** Opt : line minimisation
left   ...       0.00000000    -435.09315950
centre ...       0.08075379    -437.82801325
right  ...       0.16150757    -439.62406366

left   ...       0.00000000    -435.09315950
centre ...       0.08075379    -437.82801325
right  ...       0.16150757    -439.62406366
new    ...       0.27562296    -440.86459816

__s__    ...       0.11411539

left   ...       0.08075379    -437.82801325
centre ...       0.16150757    -439.62406366
right  ...       0.27562296    -440.86459816
new    ...       0.31172111    -440.98112804

__s__    ...       0.03609815

 ALPHA AFTER:   0.31172111152652837     
  Cycle:      6 Energy:      -440.981128  Gnorm:      3.388529  CPU:    0.050
 Line minimisation2
 ALPHA BEFORE:   0.31172111152652837     
  ** Opt : line minimisation
left   ...       0.00000000    -440.98112804
centre ...       0.07793028    -442.68663342
right  ...       0.15586056    -443.73603775

left   ...       0.00000000    -440.98112804
centre ...       0.07793028    -442.68663342
right  ...       0.15586056    -443.73603775
new    ...       0.24154142    -444.25052444

__s__    ...       0.08568086

left   ...       0.07793028    -442.68663342
centre ...       0.15586056    -443.73603775
right  ...       0.24154142    -444.25052444
new    ...       0.26453669    -444.28965683

__s__    ...       0.02299527

 ALPHA AFTER:   0.26453668755646881     
  Cycle:      7 Energy:      -444.289657  Gnorm:      3.572728  CPU:    0.054
 Line minimisation2
 ALPHA BEFORE:   0.26453668755646881     
  ** Opt : line minimisation
left   ...       0.00000000    -444.28965683
centre ...       0.06613417    -446.07433490
right  ...       0.13226834    -447.49596770

left   ...       0.00000000    -444.28965683
centre ...       0.06613417    -446.07433490
right  ...       0.13226834    -447.49596770
new    ...       0.35817311    -449.52253114

__s__    ...       0.22590477

left   ...       0.06613417    -446.07433490
centre ...       0.13226834    -447.49596770
right  ...       0.35817311    -449.52253114
new    ...       0.34980271    -449.52861819

__s__    ...      -0.00837040

 ALPHA AFTER:   0.34980271139353414     
  Cycle:      8 Energy:      -449.528618  Gnorm:      2.813873  CPU:    0.058
 Line minimisation2
 ALPHA BEFORE:   0.34980271139353414     
  ** Opt : line minimisation
left   ...       0.00000000    -449.52861819
centre ...       0.08745068    -450.91422366
right  ...       0.17490136    -451.99230116

left   ...       0.00000000    -449.52861819
centre ...       0.08745068    -450.91422366
right  ...       0.17490136    -451.99230116
new    ...       0.43774524    -453.48155416

__s__    ...       0.26284388

left   ...       0.08745068    -450.91422366
centre ...       0.17490136    -451.99230116
right  ...       0.43774524    -453.48155416
new    ...       0.45528516    -453.48864741

__s__    ...       0.01753992

 ALPHA AFTER:   0.45528515704590650     
  Cycle:      9 Energy:      -453.488647  Gnorm:      1.874484  CPU:    0.063
 Line minimisation2
 ALPHA BEFORE:   0.45528515704590650     
  ** Opt : line minimisation
left   ...       0.00000000    -453.48864741
centre ...       0.11382129    -454.27618056
right  ...       0.22764258    -454.85128634

left   ...       0.00000000    -453.48864741
centre ...       0.11382129    -454.27618056
right  ...       0.22764258    -454.85128634
new    ...       0.47888094    -455.39109611

__s__    ...       0.25123836

left   ...       0.11382129    -454.27618056
centre ...       0.22764258    -454.85128634
right  ...       0.47888094    -455.39109611
new    ...       0.48830574    -455.39197349

__s__    ...       0.00942481

 ALPHA AFTER:   0.48830574263140286     
  Cycle:     10 Energy:      -455.391973  Gnorm:      1.736579  CPU:    0.067
 Line minimisation2
 ALPHA BEFORE:   0.48830574263140286     
  ** Opt : line minimisation
left   ...       0.00000000    -455.39197349
centre ...       0.12207644    -456.09882608
right  ...       0.24415287    -456.57626426

left   ...       0.00000000    -455.39197349
centre ...       0.12207644    -456.09882608
right  ...       0.24415287    -456.57626426
new    ...       0.43716997    -456.81150645

__s__    ...       0.19301710

 ALPHA AFTER:   0.43716997299457588     
  Cycle:     11 Energy:      -456.811506  Gnorm:      1.908897  CPU:    0.071
 Line minimisation2
 ALPHA BEFORE:   0.43716997299457588     
  ** Opt : line minimisation
left   ...       0.00000000    -456.81150645
centre ...       0.10929249    -457.56380374
right  ...       0.21858499    -458.17013182

left   ...       0.00000000    -456.81150645
centre ...       0.10929249    -457.56380374
right  ...       0.21858499    -458.17013182
new    ...       0.61791878    -458.99052078

__s__    ...       0.39933380

left   ...       0.10929249    -457.56380374
centre ...       0.21858499    -458.17013182
right  ...       0.61791878    -458.99052078
new    ...       0.56780965    -459.01889747

__s__    ...      -0.05010913

 ALPHA AFTER:   0.56780964837571402     
  Cycle:     12 Energy:      -459.018897  Gnorm:      1.705407  CPU:    0.077
 Line minimisation2
 ALPHA BEFORE:   0.56780964837571402     
  ** Opt : line minimisation
left   ...       0.00000000    -459.01889747
centre ...       0.14195241    -459.86319372
right  ...       0.28390482    -460.52032195

left   ...       0.00000000    -459.01889747
centre ...       0.14195241    -459.86319372
right  ...       0.28390482    -460.52032195
new    ...       0.71130935    -461.07241379

__s__    ...       0.42740452

left   ...       0.14195241    -459.86319372
centre ...       0.28390482    -460.52032195
right  ...       0.71130935    -461.07241379
new    ...       0.60778834    -461.17045248

__s__    ...      -0.10352101

 ALPHA AFTER:   0.60778833764436124     
  Cycle:     13 Energy:      -461.170452  Gnorm:      1.881883  CPU:    0.083
 Line minimisation2
 ALPHA BEFORE:   0.60778833764436124     
  ** Opt : line minimisation
left   ...       0.00000000    -461.17045248
centre ...       0.15194708    -462.21962335
right  ...       0.30389417    -462.84410245

left   ...       0.00000000    -461.17045248
centre ...       0.15194708    -462.21962335
right  ...       0.30389417    -462.84410245
new    ...       0.45134803    -462.83483164

__s__    ...       0.14745386

 ALPHA AFTER:   0.30389416882218062     
  Cycle:     14 Energy:      -462.844102  Gnorm:      1.616850  CPU:    0.088
 Line minimisation2
 ALPHA BEFORE:   0.30389416882218062     
  ** Opt : line minimisation
left   ...       0.00000000    -462.84410245
centre ...       0.07597354    -463.25282143
right  ...       0.15194708    -463.56668159

left   ...       0.00000000    -462.84410245
centre ...       0.07597354    -463.25282143
right  ...       0.15194708    -463.56668159
new    ...       0.36533463    -463.96980281

__s__    ...       0.21338754

left   ...       0.07597354    -463.25282143
centre ...       0.15194708    -463.56668159
right  ...       0.36533463    -463.96980281
new    ...       0.38054991    -463.97342838

__s__    ...       0.01521529

 ALPHA AFTER:   0.38054991213468575     
  Cycle:     15 Energy:      -463.973428  Gnorm:      1.404716  CPU:    0.094
 Line minimisation2
 ALPHA BEFORE:   0.38054991213468575     
  ** Opt : line minimisation
left   ...       0.00000000    -463.97342838
centre ...       0.09513748    -464.35556613
right  ...       0.19027496    -464.62660161

left   ...       0.00000000    -463.97342838
centre ...       0.09513748    -464.35556613
right  ...       0.19027496    -464.62660161
new    ...       0.37479539    -464.83914489

__s__    ...       0.18452044

left   ...       0.09513748    -464.35556613
centre ...       0.19027496    -464.62660161
right  ...       0.37479539    -464.83914489
new    ...       0.37744575    -464.83922223

__s__    ...       0.00265036

 ALPHA AFTER:   0.37744575088143811     
  Cycle:     16 Energy:      -464.839222  Gnorm:      1.018780  CPU:    0.100
 Line minimisation2
 ALPHA BEFORE:   0.37744575088143811     
  ** Opt : line minimisation
left   ...       0.00000000    -464.83922223
centre ...       0.09436144    -465.04655577
right  ...       0.18872288    -465.21880926

left   ...       0.00000000    -464.83922223
centre ...       0.09436144    -465.04655577
right  ...       0.18872288    -465.21880926
new    ...       0.60488475    -465.56141001

__s__    ...       0.41616188

left   ...       0.09436144    -465.04655577
centre ...       0.18872288    -465.21880926
right  ...       0.60488475    -465.56141001
new    ...       0.60647853    -465.56144269

__s__    ...       0.00159378

 ALPHA AFTER:   0.60647852970038107     
  Cycle:     17 Energy:      -465.561443  Gnorm:      0.784477  CPU:    0.106
 Line minimisation2
 ALPHA BEFORE:   0.60647852970038107     
  ** Opt : line minimisation
left   ...       0.00000000    -465.56144269
centre ...       0.15161963    -465.74496370
right  ...       0.30323926    -465.87135567

left   ...       0.00000000    -465.56144269
centre ...       0.15161963    -465.74496370
right  ...       0.30323926    -465.87135567
new    ...       0.56287196    -465.95513064

__s__    ...       0.25963269

left   ...       0.15161963    -465.74496370
centre ...       0.30323926    -465.87135567
right  ...       0.56287196    -465.95513064
new    ...       0.56291074    -465.95513045

__s__    ...       0.00003879

 ALPHA AFTER:   0.56287195547737834     
  Cycle:     18 Energy:      -465.955131  Gnorm:      0.908643  CPU:    0.112
 Perform trimming
 Line minimisation2
 ALPHA BEFORE:   0.56287195547737834     
  ** Opt : line minimisation
left   ...       0.00000000    -465.95513064
centre ...       0.14071799    -466.18246460
right  ...       0.28143598    -466.35766674

left   ...       0.00000000    -465.95513064
centre ...       0.14071799    -466.18246460
right  ...       0.28143598    -466.35766674
new    ...       0.68399525    -466.56606169

__s__    ...       0.40255927

left   ...       0.14071799    -466.18246460
centre ...       0.28143598    -466.35766674
right  ...       0.68399525    -466.56606169
new    ...       0.67603949    -466.56621455

__s__    ...      -0.00795576

 ALPHA AFTER:   0.67603949246250894     
  Cycle:     19 Energy:      -466.566215  Gnorm:      1.125089  CPU:    0.118
 Line minimisation2
 ALPHA BEFORE:   0.67603949246250894     
  ** Opt : line minimisation
left   ...       0.00000000    -466.56621455
centre ...       0.16900987    -466.89269002
right  ...       0.33801975    -466.90913416

left   ...       0.00000000    -466.56621455
centre ...       0.16900987    -466.89269002
right  ...       0.33801975    -466.90913416
new    ...       0.26247913    -466.93922249

__s__    ...      -0.07554061

 ALPHA AFTER:   0.26247913160218206     
  Cycle:     20 Energy:      -466.939222  Gnorm:      0.766374  CPU:    0.123
 Line minimisation2
 ALPHA BEFORE:   0.26247913160218206     
  ** Opt : line minimisation
left   ...       0.00000000    -466.93922249
centre ...       0.06561978    -467.01829051
right  ...       0.13123957    -467.08389923

left   ...       0.00000000    -466.93922249
centre ...       0.06561978    -467.01829051
right  ...       0.13123957    -467.08389923
new    ...       0.41830002    -467.20912920

__s__    ...       0.28706045

left   ...       0.06561978    -467.01829051
centre ...       0.13123957    -467.08389923
right  ...       0.41830002    -467.20912920
new    ...       0.41126864    -467.20923515

__s__    ...      -0.00703138

 ALPHA AFTER:   0.41126863776974804     
  Cycle:     21 Energy:      -467.209235  Gnorm:      0.627209  CPU:    0.129
 Line minimisation2
 ALPHA BEFORE:   0.41126863776974804     
  ** Opt : line minimisation
left   ...       0.00000000    -467.20923515
centre ...       0.10281716    -467.29396615
right  ...       0.20563432    -467.36876997

left   ...       0.00000000    -467.20923515
centre ...       0.10281716    -467.29396615
right  ...       0.20563432    -467.36876997
new    ...       0.92897934    -467.60054429

__s__    ...       0.72334502

left   ...       0.10281716    -467.29396615
centre ...       0.20563432    -467.36876997
right  ...       0.92897934    -467.60054429
new    ...       0.89241697    -467.60155278

__s__    ...      -0.03656237

 ALPHA AFTER:   0.89241696561457784     
  Cycle:     22 Energy:      -467.601553  Gnorm:      0.663624  CPU:    0.135
 Line minimisation2
 ALPHA BEFORE:   0.89241696561457784     
  ** Opt : line minimisation
left   ...       0.00000000    -467.60155278
centre ...       0.22310424    -467.78826216
right  ...       0.44620848    -467.90566936

left   ...       0.00000000    -467.60155278
centre ...       0.22310424    -467.78826216
right  ...       0.44620848    -467.90566936
new    ...       0.71262494    -467.95111958

__s__    ...       0.26641646

 ALPHA AFTER:   0.71262493825789675     
  Cycle:     23 Energy:      -467.951120  Gnorm:      0.763974  CPU:    0.140
 Line minimisation2
 ALPHA BEFORE:   0.71262493825789675     
  ** Opt : line minimisation
left   ...       0.00000000    -467.95111958
centre ...       0.17815623    -468.13811957
right  ...       0.35631247    -468.23349269

left   ...       0.00000000    -467.95111958
centre ...       0.17815623    -468.13811957
right  ...       0.35631247    -468.23349269
new    ...       0.45267471    -468.24508104

__s__    ...       0.09636224

 ALPHA AFTER:   0.45267470831140189     
  Cycle:     24 Energy:      -468.245081  Gnorm:      0.688547  CPU:    0.145
 Line minimisation2
 ALPHA BEFORE:   0.45267470831140189     
  ** Opt : line minimisation
left   ...       0.00000000    -468.24508104
centre ...       0.11316868    -468.35666523
right  ...       0.22633735    -468.45056336

left   ...       0.00000000    -468.24508104
centre ...       0.11316868    -468.35666523
right  ...       0.22633735    -468.45056336
new    ...       0.77058345    -468.64521506

__s__    ...       0.54424610

left   ...       0.11316868    -468.35666523
centre ...       0.22633735    -468.45056336
right  ...       0.77058345    -468.64521506
new    ...       0.74750151    -468.64588642

__s__    ...      -0.02308195

 ALPHA AFTER:   0.74750150553106376     
  Cycle:     25 Energy:      -468.645886  Gnorm:      0.685903  CPU:    0.151
 Line minimisation2
 ALPHA BEFORE:   0.74750150553106376     
  ** Opt : line minimisation
left   ...       0.00000000    -468.64588642
centre ...       0.18687538    -468.77955929
right  ...       0.37375075    -468.78764317

left   ...       0.00000000    -468.64588642
centre ...       0.18687538    -468.77955929
right  ...       0.37375075    -468.78764317
new    ...       0.29234181    -468.79965008

__s__    ...      -0.08140894

 ALPHA AFTER:   0.29234181169975926     
  Cycle:     26 Energy:      -468.799650  Gnorm:      0.469950  CPU:    0.154
 Line minimisation2
 ALPHA BEFORE:   0.29234181169975926     
  ** Opt : line minimisation
left   ...       0.00000000    -468.79965008
centre ...       0.07308545    -468.83415657
right  ...       0.14617091    -468.86551363

left   ...       0.00000000    -468.79965008
centre ...       0.07308545    -468.83415657
right  ...       0.14617091    -468.86551363
new    ...       0.83730003    -469.00648975

__s__    ...       0.69112912

left   ...       0.07308545    -468.83415657
centre ...       0.14617091    -468.86551363
right  ...       0.83730003    -469.00648975
new    ...       0.83804107    -469.00649879

__s__    ...       0.00074104

 ALPHA AFTER:   0.83804106605424111     
  Cycle:     27 Energy:      -469.006499  Gnorm:      0.421365  CPU:    0.159
 Line minimisation2
 ALPHA BEFORE:   0.83804106605424111     
  ** Opt : line minimisation
left   ...       0.00000000    -469.00649879
centre ...       0.20951027    -469.07218887
right  ...       0.41902053    -469.09781015

left   ...       0.00000000    -469.00649879
centre ...       0.20951027    -469.07218887
right  ...       0.41902053    -469.09781015
new    ...       0.44823299    -469.09805643

__s__    ...       0.02921246

 ALPHA AFTER:   0.44823298804849521     
  Cycle:     28 Energy:      -469.098056  Gnorm:      0.389400  CPU:    0.163
 Line minimisation2
 ALPHA BEFORE:   0.44823298804849521     
  ** Opt : line minimisation
left   ...       0.00000000    -469.09805643
centre ...       0.11205825    -469.13176303
right  ...       0.22411649    -469.15556021

left   ...       0.00000000    -469.09805643
centre ...       0.11205825    -469.13176303
right  ...       0.22411649    -469.15556021
new    ...       0.43719191    -469.17504247

__s__    ...       0.21307541

left   ...       0.11205825    -469.13176303
centre ...       0.22411649    -469.15556021
right  ...       0.43719191    -469.17504247
new    ...       0.45356810    -469.17510162

__s__    ...       0.01637619

 ALPHA AFTER:   0.45356809737961762     
  Cycle:     29 Energy:      -469.175102  Gnorm:      0.320012  CPU:    0.167
 Line minimisation2
 ALPHA BEFORE:   0.45356809737961762     
  ** Opt : line minimisation
left   ...       0.00000000    -469.17510162
centre ...       0.11339202    -469.19767689
right  ...       0.22678405    -469.21206505

left   ...       0.00000000    -469.17510162
centre ...       0.11339202    -469.19767689
right  ...       0.22678405    -469.21206505
new    ...       0.36936505    -469.21898250

__s__    ...       0.14258100

 ALPHA AFTER:   0.36936504888198685     
  Cycle:     30 Energy:      -469.218982  Gnorm:      0.286316  CPU:    0.171
 Line minimisation2
 ALPHA BEFORE:   0.36936504888198685     
  ** Opt : line minimisation
left   ...       0.00000000    -469.21898250
centre ...       0.09234126    -469.23456729
right  ...       0.18468252    -469.24693230

left   ...       0.00000000    -469.21898250
centre ...       0.09234126    -469.23456729
right  ...       0.18468252    -469.24693230
new    ...       0.49313179    -469.26296741

__s__    ...       0.30844926

left   ...       0.09234126    -469.23456729
centre ...       0.18468252    -469.24693230
right  ...       0.49313179    -469.26296741
new    ...       0.46607857    -469.26307882

__s__    ...      -0.02705321

 ALPHA AFTER:   0.46607857295942146     
  Cycle:     31 Energy:      -469.263079  Gnorm:      0.257639  CPU:    0.176
 Line minimisation2
 ALPHA BEFORE:   0.46607857295942146     
  ** Opt : line minimisation
left   ...       0.00000000    -469.26307882
centre ...       0.11651964    -469.27937482
right  ...       0.23303929    -469.29281798

left   ...       0.00000000    -469.26307882
centre ...       0.11651964    -469.27937482
right  ...       0.23303929    -469.29281798
new    ...       0.72384184    -469.31592408

__s__    ...       0.49080255

left   ...       0.11651964    -469.27937482
centre ...       0.23303929    -469.29281798
right  ...       0.72384184    -469.31592408
new    ...       0.68776739    -469.31600163

__s__    ...      -0.03607445

 ALPHA AFTER:   0.68776738661225634     
  Cycle:     32 Energy:      -469.316002  Gnorm:      0.187926  CPU:    0.180
 Line minimisation2
 ALPHA BEFORE:   0.68776738661225634     
  ** Opt : line minimisation
left   ...       0.00000000    -469.31600163
centre ...       0.17194185    -469.32872325
right  ...       0.34388369    -469.33923111

left   ...       0.00000000    -469.31600163
centre ...       0.17194185    -469.32872325
right  ...       0.34388369    -469.33923111
new    ...       1.07405813    -469.35569178

__s__    ...       0.73017444

left   ...       0.17194185    -469.32872325
centre ...       0.34388369    -469.33923111
right  ...       1.07405813    -469.35569178
new    ...       0.97261024    -469.35595184

__s__    ...      -0.10144789

 ALPHA AFTER:   0.97261023730644303     
  Cycle:     33 Energy:      -469.355952  Gnorm:      0.222613  CPU:    0.185
 Perform trimming
 Line minimisation2
 ALPHA BEFORE:   0.97261023730644303     
  ** Opt : line minimisation
left   ...       0.00000000    -469.35595184
centre ...       0.24315256    -469.37864478
right  ...       0.48630512    -469.39292640

left   ...       0.00000000    -469.35595184
centre ...       0.24315256    -469.37864478
right  ...       0.48630512    -469.39292640
new    ...       0.77757824    -469.39862104

__s__    ...       0.29127312

 ALPHA AFTER:   0.77757823711284646     
  Cycle:     34 Energy:      -469.398621  Gnorm:      0.310960  CPU:    0.188
 Perform trimming
 Line minimisation2
 ALPHA BEFORE:   0.77757823711284646     
  ** Opt : line minimisation
left   ...       0.00000000    -469.39862104
centre ...       0.19439456    -469.42584973
right  ...       0.38878912    -469.44636967

left   ...       0.00000000    -469.39862104
centre ...       0.19439456    -469.42584973
right  ...       0.38878912    -469.44636967
new    ...       0.88618287    -469.47084142

__s__    ...       0.49739375

left   ...       0.19439456    -469.42584973
centre ...       0.38878912    -469.44636967
right  ...       0.88618287    -469.47084142
new    ...       0.93944693    -469.47075465

__s__    ...       0.05326406

 ALPHA AFTER:   0.88618286804458801     
  Cycle:     35 Energy:      -469.470841  Gnorm:      0.231789  CPU:    0.195
 Line minimisation2
 ALPHA BEFORE:   0.88618286804458801     
  ** Opt : line minimisation
left   ...       0.00000000    -469.47084142
centre ...       0.22154572    -469.49161654
right  ...       0.44309143    -469.49853392

left   ...       0.00000000    -469.47084142
centre ...       0.22154572    -469.49161654
right  ...       0.44309143    -469.49853392
new    ...       0.44290777    -469.49853451

__s__    ...      -0.00018366

 ALPHA AFTER:   0.44290777319140084     
  Cycle:     36 Energy:      -469.498535  Gnorm:      0.246325  CPU:    0.199
 Line minimisation2
 ALPHA BEFORE:   0.44290777319140084     
  ** Opt : line minimisation
left   ...       0.00000000    -469.49853451
centre ...       0.11072694    -469.51214539
right  ...       0.22145389    -469.52283062

left   ...       0.00000000    -469.49853451
centre ...       0.11072694    -469.51214539
right  ...       0.22145389    -469.52283062
new    ...       0.57049314    -469.53860100

__s__    ...       0.34903925

left   ...       0.11072694    -469.51214539
centre ...       0.22145389    -469.52283062
right  ...       0.57049314    -469.53860100
new    ...       0.59836908    -469.53866394

__s__    ...       0.02787594

 ALPHA AFTER:   0.59836907642335480     
  Cycle:     37 Energy:      -469.538664  Gnorm:      0.252156  CPU:    0.203
 Line minimisation2
 ALPHA BEFORE:   0.59836907642335480     
  ** Opt : line minimisation
left   ...       0.00000000    -469.53866394
centre ...       0.14959227    -469.55786660
right  ...       0.29918454    -469.57300601

left   ...       0.00000000    -469.53866394
centre ...       0.14959227    -469.55786660
right  ...       0.29918454    -469.57300601
new    ...       0.78175967    -469.59494375

__s__    ...       0.48257513

left   ...       0.14959227    -469.55786660
centre ...       0.29918454    -469.57300601
right  ...       0.78175967    -469.59494375
new    ...       0.79823785    -469.59496295

__s__    ...       0.01647818

 ALPHA AFTER:   0.79823784923700591     
  Cycle:     38 Energy:      -469.594963  Gnorm:      0.270433  CPU:    0.208
 Line minimisation2
 ALPHA BEFORE:   0.79823784923700591     
  ** Opt : line minimisation
left   ...       0.00000000    -469.59496295
centre ...       0.19955946    -469.62391176
right  ...       0.39911892    -469.64607575

left   ...       0.00000000    -469.59496295
centre ...       0.19955946    -469.62391176
right  ...       0.39911892    -469.64607575
new    ...       0.95123959    -469.67166029

__s__    ...       0.55212067

left   ...       0.19955946    -469.62391176
centre ...       0.39911892    -469.64607575
right  ...       0.95123959    -469.67166029
new    ...       0.94425138    -469.67170639

__s__    ...      -0.00698822

 ALPHA AFTER:   0.94425137775922863     
  Cycle:     39 Energy:      -469.671706  Gnorm:      0.433682  CPU:    0.212
 Line minimisation2
 ALPHA BEFORE:   0.94425137775922863     
  ** Opt : line minimisation
left   ...       0.00000000    -469.67170639
centre ...       0.23606284    -469.70770439
right  ...       0.47212569    -469.61465062

left   ...       0.00000000    -469.67170639
centre ...       0.23606284    -469.70770439
right  ...       0.47212569    -469.61465062
new    ...       0.18387933    -469.71095068

__s__    ...      -0.28824635

left   ...       0.00000000    -469.67170639
centre ...       0.18387933    -469.71095068
right  ...       0.23606284    -469.70770439
new    ...       0.18333193    -469.71095112

__s__    ...      -0.00054740

 ALPHA AFTER:   0.18333193417125571     
  Cycle:     40 Energy:      -469.710951  Gnorm:      0.169405  CPU:    0.217
 Line minimisation2
 ALPHA BEFORE:   0.18333193417125571     
  ** Opt : line minimisation
left   ...       0.00000000    -469.71095112
centre ...       0.04583298    -469.71382320
right  ...       0.09166597    -469.71646677

left   ...       0.00000000    -469.71095112
centre ...       0.04583298    -469.71382320
right  ...       0.09166597    -469.71646677
new    ...       0.59899291    -469.73037292

__s__    ...       0.50732694

left   ...       0.04583298    -469.71382320
centre ...       0.09166597    -469.71646677
right  ...       0.59899291    -469.73037292
new    ...       0.59580135    -469.73037397

__s__    ...      -0.00319156

 ALPHA AFTER:   0.59580134518884365     
  Cycle:     41 Energy:      -469.730374  Gnorm:      0.176255  CPU:    0.221
 Line minimisation2
 ALPHA BEFORE:   0.59580134518884365     
  ** Opt : line minimisation
left   ...       0.00000000    -469.73037397
centre ...       0.14895034    -469.73951632
right  ...       0.29790067    -469.74579488

left   ...       0.00000000    -469.73037397
centre ...       0.14895034    -469.73951632
right  ...       0.29790067    -469.74579488
new    ...       0.54998390    -469.75016150

__s__    ...       0.25208323

left   ...       0.14895034    -469.73951632
centre ...       0.29790067    -469.74579488
right  ...       0.54998390    -469.75016150
new    ...       0.56382911    -469.75015866

__s__    ...       0.01384521

 ALPHA AFTER:   0.54998390204273584     
  Cycle:     42 Energy:      -469.750162  Gnorm:      0.181098  CPU:    0.228
 Line minimisation2
 ALPHA BEFORE:   0.54998390204273584     
  ** Opt : line minimisation
left   ...       0.00000000    -469.75016150
centre ...       0.13749598    -469.75964468
right  ...       0.27499195    -469.76653266

left   ...       0.00000000    -469.75016150
centre ...       0.13749598    -469.75964468
right  ...       0.27499195    -469.76653266
new    ...       0.57117756    -469.77438117

__s__    ...       0.29618561

left   ...       0.13749598    -469.75964468
centre ...       0.27499195    -469.76653266
right  ...       0.57117756    -469.77438117
new    ...       0.66658640    -469.77466792

__s__    ...       0.09540883

 ALPHA AFTER:   0.66658639598822367     
  Cycle:     43 Energy:      -469.774668  Gnorm:      0.178853  CPU:    0.232
 Line minimisation2
 ALPHA BEFORE:   0.66658639598822367     
  ** Opt : line minimisation
left   ...       0.00000000    -469.77466792
centre ...       0.16664660    -469.78548099
right  ...       0.33329320    -469.79518745

left   ...       0.00000000    -469.77466792
centre ...       0.16664660    -469.78548099
right  ...       0.33329320    -469.79518745
new    ...       1.33329320    -469.82575240

__s__    ...       1.00000000

left   ...       0.16664660    -469.78548099
centre ...       0.33329320    -469.79518745
right  ...       1.33329320    -469.82575240
new    ...       1.47739293    -469.82612934

__s__    ...       0.14409973

 ALPHA AFTER:    1.4773929291876122     
  Cycle:     44 Energy:      -469.826129  Gnorm:      0.242421  CPU:    0.237
 Perform trimming
 Line minimisation2
 ALPHA BEFORE:    1.4773929291876122     
  ** Opt : line minimisation
left   ...       0.00000000    -469.82612934
centre ...       0.36934823    -469.85726519
right  ...       0.73869646    -469.86754017

left   ...       0.00000000    -469.82612934
centre ...       0.36934823    -469.85726519
right  ...       0.73869646    -469.86754017
new    ...       0.73594392    -469.86754262

__s__    ...      -0.00275255

 ALPHA AFTER:   0.73594391581416829     
  Cycle:     45 Energy:      -469.867543  Gnorm:      0.298607  CPU:    0.241
 Perform trimming
 Line minimisation2
 ALPHA BEFORE:   0.73594391581416829     
  ** Opt : line minimisation
left   ...       0.00000000    -469.86754262
centre ...       0.18398598    -469.89518162
right  ...       0.36797196    -469.90685567

left   ...       0.00000000    -469.86754262
centre ...       0.18398598    -469.89518162
right  ...       0.36797196    -469.90685567
new    ...       0.41051499    -469.90885196

__s__    ...       0.04254303

 ALPHA AFTER:   0.41051499057401258     
  Cycle:     46 Energy:      -469.908852  Gnorm:      0.245260  CPU:    0.244
 Line minimisation2
 ALPHA BEFORE:   0.41051499057401258     
  ** Opt : line minimisation
left   ...       0.00000000    -469.90885196
centre ...       0.10262875    -469.92225742
right  ...       0.20525750    -469.93454180

left   ...       0.00000000    -469.90885196
centre ...       0.10262875    -469.92225742
right  ...       0.20525750    -469.93454180
new    ...       1.20525750    -469.98346462

__s__    ...       1.00000000

left   ...       0.10262875    -469.92225742
centre ...       0.20525750    -469.93454180
right  ...       1.20525750    -469.98346462
new    ...       1.08635339    -469.98429859

__s__    ...      -0.11890410

 ALPHA AFTER:    1.0863533926823761     
  Cycle:     47 Energy:      -469.984299  Gnorm:      0.241447  CPU:    0.249
 Line minimisation2
 ALPHA BEFORE:    1.0863533926823761     
  ** Opt : line minimisation
left   ...       0.00000000    -469.98429859
centre ...       0.27158835    -470.01157362
right  ...       0.54317670    -470.02153357

left   ...       0.00000000    -469.98429859
centre ...       0.27158835    -470.01157362
right  ...       0.54317670    -470.02153357
new    ...       0.56360500    -470.02151814

__s__    ...       0.02042830

 ALPHA AFTER:   0.54317669634118804     
  Cycle:     48 Energy:      -470.021534  Gnorm:      0.273172  CPU:    0.253
 Line minimisation2
 ALPHA BEFORE:   0.54317669634118804     
  ** Opt : line minimisation
left   ...       0.00000000    -470.02153357
centre ...       0.13579417    -470.04189870
right  ...       0.27158835    -470.05560057

left   ...       0.00000000    -470.02153357
centre ...       0.13579417    -470.04189870
right  ...       0.27158835    -470.05560057
new    ...       0.48292915    -470.06338311

__s__    ...       0.21134080

 ALPHA AFTER:   0.48292914904924505     
  Cycle:     49 Energy:      -470.063383  Gnorm:      0.220826  CPU:    0.257
 Line minimisation2
 ALPHA BEFORE:   0.48292914904924505     
  ** Opt : line minimisation
left   ...       0.00000000    -470.06338311
centre ...       0.12073229    -470.07474395
right  ...       0.24146457    -470.08138570

left   ...       0.00000000    -470.06338311
centre ...       0.12073229    -470.07474395
right  ...       0.24146457    -470.08138570
new    ...       0.35101986    -470.08353512

__s__    ...       0.10955528

 ALPHA AFTER:   0.35101985933125129     
  Cycle:     50 Energy:      -470.083535  Gnorm:      0.212128  CPU:    0.262
 Line minimisation2
 ALPHA BEFORE:   0.35101985933125129     
  ** Opt : line minimisation
left   ...       0.00000000    -470.08353512
centre ...       0.08775496    -470.09195646
right  ...       0.17550993    -470.09863783

left   ...       0.00000000    -470.08353512
centre ...       0.08775496    -470.09195646
right  ...       0.17550993    -470.09863783
new    ...       0.46860696    -470.11027490

__s__    ...       0.29309703

left   ...       0.08775496    -470.09195646
centre ...       0.17550993    -470.09863783
right  ...       0.46860696    -470.11027490
new    ...       0.52958078    -470.11046636

__s__    ...       0.06097382

 ALPHA AFTER:   0.52958077881245547     
  Cycle:     51 Energy:      -470.110466  Gnorm:      0.179519  CPU:    0.266
 Line minimisation2
 ALPHA BEFORE:   0.52958077881245547     
  ** Opt : line minimisation
left   ...       0.00000000    -470.11046636
centre ...       0.13239519    -470.11913927
right  ...       0.26479039    -470.12583413

left   ...       0.00000000    -470.11046636
centre ...       0.13239519    -470.11913927
right  ...       0.26479039    -470.12583413
new    ...       0.64669528    -470.13556359

__s__    ...       0.38190489

left   ...       0.13239519    -470.11913927
centre ...       0.26479039    -470.12583413
right  ...       0.64669528    -470.13556359
new    ...       0.71683911    -470.13567429

__s__    ...       0.07014384

 ALPHA AFTER:   0.71683911482548612     
  Cycle:     52 Energy:      -470.135674  Gnorm:      0.132128  CPU:    0.271
 Line minimisation2
 ALPHA BEFORE:   0.71683911482548612     
  ** Opt : line minimisation
left   ...       0.00000000    -470.13567429
centre ...       0.17920978    -470.14146328
right  ...       0.35841956    -470.14540858

left   ...       0.00000000    -470.13567429
centre ...       0.17920978    -470.14146328
right  ...       0.35841956    -470.14540858
new    ...       0.65230686    -470.14831105

__s__    ...       0.29388730

left   ...       0.17920978    -470.14146328
centre ...       0.35841956    -470.14540858
right  ...       0.65230686    -470.14831105
new    ...       0.69781818    -470.14828601

__s__    ...       0.04551132

 ALPHA AFTER:   0.65230686149569472     
  Cycle:     53 Energy:      -470.148311  Gnorm:      0.135533  CPU:    0.275
 Line minimisation2
 ALPHA BEFORE:   0.65230686149569472     
  ** Opt : line minimisation
left   ...       0.00000000    -470.14831105
centre ...       0.16307672    -470.15385466
right  ...       0.32615343    -470.15658672

left   ...       0.00000000    -470.14831105
centre ...       0.16307672    -470.15385466
right  ...       0.32615343    -470.15658672
new    ...       0.40308082    -470.15690227

__s__    ...       0.07692739

 ALPHA AFTER:   0.40308081646957589     
  Cycle:     54 Energy:      -470.156902  Gnorm:      0.130458  CPU:    0.279
 Line minimisation2
 ALPHA BEFORE:   0.40308081646957589     
  ** Opt : line minimisation
left   ...       0.00000000    -470.15690227
centre ...       0.10077020    -470.16035704
right  ...       0.20154041    -470.16338938

left   ...       0.00000000    -470.15690227
centre ...       0.10077020    -470.16035704
right  ...       0.20154041    -470.16338938
new    ...       0.87450113    -470.16864909

__s__    ...       0.67296072

left   ...       0.10077020    -470.16035704
centre ...       0.20154041    -470.16338938
right  ...       0.87450113    -470.16864909
new    ...       0.67375802    -470.16975984

__s__    ...      -0.20074311

 ALPHA AFTER:   0.67375801792421308     
  Cycle:     55 Energy:      -470.169760  Gnorm:      0.113896  CPU:    0.284
 Line minimisation2
 ALPHA BEFORE:   0.67375801792421308     
  ** Opt : line minimisation
left   ...       0.00000000    -470.16975984
centre ...       0.16843950    -470.17400414
right  ...       0.33687901    -470.17656151

left   ...       0.00000000    -470.16975984
centre ...       0.16843950    -470.17400414
right  ...       0.33687901    -470.17656151
new    ...       0.50801032    -470.17776756

__s__    ...       0.17113131

 ALPHA AFTER:   0.50801031954614273     
  Cycle:     56 Energy:      -470.177768  Gnorm:      0.097772  CPU:    0.287
  ** Hessian calculated **
 Line minimisation2
 ALPHA BEFORE:    1.0000000000000000     
  ** Opt : line minimisation
left   ...       0.00000000    -470.17776756
centre ...       0.25000000    -470.18382404
right  ...       0.50000000    -470.18979735

left   ...       0.00000000    -470.17776756
centre ...       0.25000000    -470.18382404
right  ...       0.50000000    -470.18979735
new    ...       1.50000000    -470.21260581

__s__    ...       1.00000000

left   ...       0.25000000    -470.18382404
centre ...       0.50000000    -470.18979735
right  ...       1.50000000    -470.21260581
new    ...       2.50000000    -470.23353706

__s__    ...       1.00000000

left   ...       0.50000000    -470.18979735
centre ...       1.50000000    -470.21260581
right  ...       2.50000000    -470.23353706
new    ...       3.50000000    -470.25338004

__s__    ...       1.00000000

left   ...       1.50000000    -470.21260581
centre ...       2.50000000    -470.23353706
right  ...       3.50000000    -470.25338004
new    ...       4.50000000    -470.27147865

__s__    ...       1.00000000

 ALPHA AFTER:    4.5000000000000000     
  Cycle:     57 Energy:      -470.271479  Gnorm:      0.073851  CPU:    0.297
 Line minimisation2
 ALPHA BEFORE:    3.0000000000000000     
  ** Opt : line minimisation
left   ...       0.00000000    -470.27147865
centre ...       0.75000000    -470.29034200
right  ...       1.50000000    -470.30764939

left   ...       0.00000000    -470.27147865
centre ...       0.75000000    -470.29034200
right  ...       1.50000000    -470.30764939
new    ...       2.50000000    -470.32739139

__s__    ...       1.00000000

left   ...       0.75000000    -470.29034200
centre ...       1.50000000    -470.30764939
right  ...       2.50000000    -470.32739139
new    ...       3.50000000    -470.34269545

__s__    ...       1.00000000

left   ...       1.50000000    -470.30764939
centre ...       2.50000000    -470.32739139
right  ...       3.50000000    -470.34269545
new    ...       4.50000000    -470.35375224

__s__    ...       1.00000000

 ALPHA AFTER:    4.5000000000000000     
  Cycle:     58 Energy:      -470.353752  Gnorm:      0.064028  CPU:    0.303
 Line minimisation2
 ALPHA BEFORE:    3.0000000000000000     
  ** Opt : line minimisation
left   ...       0.00000000    -470.35375224
centre ...       0.75000000    -470.36550503
right  ...       1.50000000    -470.37196575

left   ...       0.00000000    -470.35375224
centre ...       0.75000000    -470.36550503
right  ...       1.50000000    -470.37196575
new    ...       2.04062126    -470.37282667

__s__    ...       0.54062126

 ALPHA AFTER:    2.0406212614168049     
  Cycle:     59 Energy:      -470.372827  Gnorm:      0.042819  CPU:    0.306
 Line minimisation2
 ALPHA BEFORE:    7.9015549961312823     
  ** Opt : line minimisation
left   ...       0.00000000    -470.37282667
centre ...       1.00000000    -470.37683681
right  ...       2.00000000    -470.37422933

left   ...       0.00000000    -470.37282667
centre ...       1.00000000    -470.37683681
right  ...       2.00000000    -470.37422933
new    ...       1.10597926    -470.37689102

__s__    ...      -0.89402074

left   ...       1.00000000    -470.37683681
centre ...       1.10597926    -470.37689102
right  ...       2.00000000    -470.37422933
new    ...       1.12630243    -470.37689276

__s__    ...       0.02032317

 ALPHA AFTER:    1.1263024278059528     
  Cycle:     60 Energy:      -470.376893  Gnorm:      0.042099  CPU:    0.311
 Line minimisation2
 ALPHA BEFORE:   0.87457126686225672     
  ** Opt : line minimisation
left   ...       0.00000000    -470.37689276
centre ...       0.21864282    -470.37759963
right  ...       0.43728563    -470.37803135

left   ...       0.00000000    -470.37689276
centre ...       0.21864282    -470.37759963
right  ...       0.43728563    -470.37803135
new    ...       0.67102518    -470.37817224

__s__    ...       0.23373954

 ALPHA AFTER:   0.67102517583344057     
  Cycle:     61 Energy:      -470.378172  Gnorm:      0.014974  CPU:    0.315
 Line minimisation2
 ALPHA BEFORE:    2.0064726342513426     
  ** Opt : line minimisation
left   ...       0.00000000    -470.37817224
centre ...       0.50161816    -470.37821409
right  ...       1.00323632    -470.37828422

left   ...       0.00000000    -470.37817224
centre ...       0.50161816    -470.37821409
right  ...       1.00323632    -470.37828422
new    ...       2.00323632    -470.37806168

__s__    ...       1.00000000

left   ...       0.50161816    -470.37821409
centre ...       1.00323632    -470.37828422
right  ...       2.00323632    -470.37806168
new    ...       1.04211321    -470.37828431

__s__    ...      -0.96112311

left   ...       1.00323632    -470.37828422
centre ...       1.04211321    -470.37828431
right  ...       2.00323632    -470.37806168
new    ...       1.02785934    -470.37828437

__s__    ...      -0.01425387

 ALPHA AFTER:    1.0278593403001639     
  Cycle:     62 Energy:      -470.378284  Gnorm:      0.006074  CPU:    0.320
 Line minimisation2
 ALPHA BEFORE:    2.0821813501090398     
  ** Opt : line minimisation
left   ...       0.00000000    -470.37828437
centre ...       0.52054534    -470.37834055
right  ...       1.04109068    -470.37834634

left   ...       0.00000000    -470.37828437
centre ...       0.52054534    -470.37834055
right  ...       1.04109068    -470.37834634
new    ...       0.84060343    -470.37834782

__s__    ...      -0.20048724

 ALPHA AFTER:   0.84060343084309086     
  Cycle:     63 Energy:      -470.378348  Gnorm:      0.006169  CPU:    0.325
 Line minimisation2
 ALPHA BEFORE:    2.1343648875315426     
  ** Opt : line minimisation
left   ...       0.00000000    -470.37834782
centre ...       0.53359122    -470.37836310
right  ...       1.06718244    -470.37836168

left   ...       0.00000000    -470.37834782
centre ...       0.53359122    -470.37836310
right  ...       1.06718244    -470.37836168
new    ...       0.75514391    -470.37836454

__s__    ...      -0.31203854

 ALPHA AFTER:   0.75514390742514959     
  Cycle:     64 Energy:      -470.378365  Gnorm:      0.002311  CPU:    0.329
 Line minimisation2
 ALPHA BEFORE:   0.73606873020987218     
  ** Opt : line minimisation
left   ...       0.00000000    -470.37836454
centre ...       0.18401718    -470.37836631
right  ...       0.36803437    -470.37836778

left   ...       0.00000000    -470.37836454
centre ...       0.18401718    -470.37836631
right  ...       0.36803437    -470.37836778
new    ...       1.18955583    -470.37835151

__s__    ...       0.82152147

left   ...       0.18401718    -470.37836631
centre ...       0.36803437    -470.37836778
right  ...       1.18955583    -470.37835151
new    ...       0.42068354    -470.37836814

__s__    ...      -0.76887230

left   ...       0.36803437    -470.37836778
centre ...       0.42068354    -470.37836814
right  ...       1.18955583    -470.37835151
new    ...       0.49436856    -470.37836862

__s__    ...       0.07368503

 ALPHA AFTER:   0.49436856126241857     
  Cycle:     65 Energy:      -470.378369  Gnorm:      0.001283  CPU:    0.334
 Line minimisation2
 ALPHA BEFORE:   0.37765953822332982     
  ** Opt : line minimisation
left   ...       0.00000000    -470.37836862
centre ...       0.09441488    -470.37836953
right  ...       0.18882977    -470.37837033

left   ...       0.00000000    -470.37836862
centre ...       0.09441488    -470.37836953
right  ...       0.18882977    -470.37837033
new    ...       0.74352672    -470.37835327

__s__    ...       0.55469695

left   ...       0.09441488    -470.37836953
centre ...       0.18882977    -470.37837033
right  ...       0.74352672    -470.37835327
new    ...       0.21130985    -470.37837050

__s__    ...      -0.53221686

left   ...       0.18882977    -470.37837033
centre ...       0.21130985    -470.37837050
right  ...       0.74352672    -470.37835327
new    ...       0.25275931    -470.37837079

__s__    ...       0.04144946

 ALPHA AFTER:   0.25275931455945150     
  Cycle:     66 Energy:      -470.378371  Gnorm:      0.000787  CPU:    0.340
  ** Hessian calculated **
 Line minimisation2
 ALPHA BEFORE:    1.0000000000000000     
  ** Opt : line minimisation
left   ...       0.00000000    -470.37837079
centre ...       0.25000000    -470.37835240
right  ...      -0.25000000    -470.37836970

left   ...      -0.25000000    -470.37836970
centre ...       0.00000000    -470.37837079
right  ...       0.25000000    -470.37835240
new    ...      -0.11100833    -470.37837034

__s__    ...       0.13899167

left   ...      -0.11100833    -470.37837034
centre ...       0.00000000    -470.37837079
right  ...       0.25000000    -470.37835240
new    ...      -0.04604713    -470.37837061

__s__    ...       0.06496120

left   ...      -0.04604713    -470.37837061
centre ...       0.00000000    -470.37837079
right  ...       0.25000000    -470.37835240
new    ...      -0.01551683    -470.37837073

__s__    ...       0.03053030

left   ...      -0.01551683    -470.37837073
centre ...       0.00000000    -470.37837079
right  ...       0.25000000    -470.37835240
new    ...      -0.00113087    -470.37837079

__s__    ...       0.01438596

left   ...      -0.00113087    -470.37837079
centre ...       0.00000000    -470.37837079
right  ...       0.25000000    -470.37835240
new    ...       0.00565613    -470.37837082

__s__    ...       0.00678699

 ALPHA AFTER:    5.6561293075688057E-003
  Cycle:     67 Energy:      -470.378371  Gnorm:      0.000782  CPU:    0.349
 Line minimisation2
 ALPHA BEFORE:    5.7566884577085597E-003
  ** Opt : line minimisation
left   ...       0.00000000    -470.37837082
centre ...       0.00143917    -470.37837082
right  ...       0.00287834    -470.37837083

left   ...       0.00000000    -470.37837082
centre ...       0.00143917    -470.37837082
right  ...       0.00287834    -470.37837083
new    ...       0.95739841    -470.37835333

__s__    ...       0.95452007

left   ...       0.00143917    -470.37837082
centre ...       0.00287834    -470.37837083
right  ...       0.95739841    -470.37835333
new    ...       0.08307349    -470.37837111

__s__    ...      -0.87432493

left   ...       0.00287834    -470.37837083
centre ...       0.08307349    -470.37837111
right  ...       0.95739841    -470.37835333
new    ...       0.11422558    -470.37837122

__s__    ...       0.03115210

 ALPHA AFTER:   0.11422558280338704     
  Cycle:     68 Energy:      -470.378371  Gnorm:      0.000696  CPU:    0.354
 Line minimisation2
 ALPHA BEFORE:   0.10670402429916200     
  ** Opt : line minimisation
left   ...       0.00000000    -470.37837122
centre ...       0.02667601    -470.37837131
right  ...       0.05335201    -470.37837140

left   ...       0.00000000    -470.37837122
centre ...       0.02667601    -470.37837131
right  ...       0.05335201    -470.37837140
new    ...       0.85494723    -470.37835357

__s__    ...       0.80159522

left   ...       0.02667601    -470.37837131
centre ...       0.05335201    -470.37837140
right  ...       0.85494723    -470.37835357
new    ...       0.09583391    -470.37835233

__s__    ...      -0.75911332

left   ...       0.02667601    -470.37837131
centre ...       0.05335201    -470.37837140
right  ...       0.09583391    -470.37835233
new    ...       0.04027889    -470.37837136

__s__    ...      -0.05555502

left   ...       0.04027889    -470.37837136
centre ...       0.05335201    -470.37837140
right  ...       0.09583391    -470.37835233
new    ...       0.04702647    -470.37837138

__s__    ...       0.00674758

 ALPHA AFTER:    5.3352012149580998E-002


  **** Optimisation achieved ****


  Final energy =    -470.37837140 eV
  Final Gnorm  =       0.00065388

  Components of energy : 

--------------------------------------------------------------------------------
  Interatomic potentials     =          70.68362945 eV    
  Monopole - monopole (real) =        -257.27716664 eV    
  Monopole - monopole (recip)=        -283.78483422 eV    
  Monopole - monopole (total)=        -541.06200085 eV    
--------------------------------------------------------------------------------
  Total lattice energy       =        -470.37837140 eV    
--------------------------------------------------------------------------------
  Total lattice energy       =          -45384.3224 kJ/(mole unit cells)
--------------------------------------------------------------------------------

  Final fractional coordinates of atoms :

--------------------------------------------------------------------------------
   No.  Atomic        x           y          z          Radius
        Label       (Frac)      (Frac)     (Frac)       (Angs) 
--------------------------------------------------------------------------------
     1  O     c     0.500000    0.500000    0.750000    0.000000
     2  O     c     0.475932    0.013666    0.768827    0.000000
     3  O     c     0.090622    0.656624    0.623997    0.000000
     4  O     c     0.822027    0.323517    0.954548    0.000000
     5  O     c     0.780745    0.957052    0.237078    0.000000
     6  O     c     0.373398    0.152592    0.108724    0.000000
     7  O     c     0.368760    0.637354    0.086219    0.000000
     8  O     c     0.590900    0.597470    0.419356    0.000000
     9  O     c     0.295109    0.979597    0.439291    0.000000
    10  Sr    c     0.979359    0.479192    0.263006    0.000000
    11  Sr    c     0.972994    0.829127    0.937289    0.000000
    12  Sr    c     0.900688    0.196836    0.586378    0.000000
    13  Ti    c     0.402840    0.722286    0.608967    0.000000
    14  Ti    c     0.496649    0.325341    0.934287    0.000000
    15  Ti    c     0.467125    0.923381    0.240277    0.000000
--------------------------------------------------------------------------------

  Final Cartesian lattice vectors (Angstroms) :

        5.606263    0.138773    0.093928
        0.138773    5.242444   -0.541700
        0.187855   -1.083399    7.840646


  Final cell parameters and derivatives :

--------------------------------------------------------------------------------
       a            5.608767 Angstrom     dE/de1(xx)    -0.007847 eV/strain
       b            5.272184 Angstrom     dE/de2(yy)     0.003125 eV/strain
       c            7.917372 Angstrom     dE/de3(zz)     0.003557 eV/strain
       alpha      103.720920 Degrees      dE/de4(yz)    -0.000895 eV/strain
       beta        87.884446 Degrees      dE/de5(xz)     0.000618 eV/strain
       gamma       87.180375 Degrees      dE/de6(xy)     0.000002 eV/strain
--------------------------------------------------------------------------------

  Primitive cell volume =           226.878753 Angs**3

  Density of cell =      4.029206 g/cm**3

  Non-primitive cell volume =           226.878753 Angs**3


  Final internal derivatives :

--------------------------------------------------------------------------------
   No.  Atomic          a             b             c           Radius
        Label          (eV)          (eV)          (eV)        (eV/Angs)
--------------------------------------------------------------------------------
      1 O     c       0.000000      0.000000      0.000000      0.000000
      2 O     c       0.003589     -0.004353     -0.000343      0.000000
      3 O     c      -0.007847     -0.003265      0.003510      0.000000
      4 O     c       0.008345      0.005089     -0.005614      0.000000
      5 O     c      -0.008155      0.000018      0.001405      0.000000
      6 O     c       0.000869      0.000179     -0.002630      0.000000
      7 O     c      -0.004398      0.004402      0.009547      0.000000
      8 O     c       0.008749      0.001713     -0.008854      0.000000
      9 O     c       0.004423      0.004362     -0.007886      0.000000
     10 Sr    c      -0.002258     -0.000403     -0.002762      0.000000
     11 Sr    c      -0.001053     -0.000142      0.005311      0.000000
     12 Sr    c      -0.002798     -0.000778      0.002184      0.000000
     13 Ti    c      -0.006406      0.002910     -0.000262      0.000000
     14 Ti    c       0.001188     -0.003949      0.005421      0.000000
     15 Ti    c       0.003258     -0.004067      0.003620      0.000000
--------------------------------------------------------------------------------
  Maximum abs         0.008749      0.005089      0.009547      0.000000
--------------------------------------------------------------------------------


  Time to end of optimisation =       0.3625 seconds

 Exiting ------OPTIONS------

  Peak dynamic memory used =       0.60 MB 


  Timing analysis for GULP :

--------------------------------------------------------------------------------
  Task / Subroutine                                          Time (Seconds)
--------------------------------------------------------------------------------
  Calculation of reciprocal space energy and derivatives          0.0457
  Calculation of real space energy and derivatives                0.3043
  Global summation overhead                                       0.0002
--------------------------------------------------------------------------------
  Total CPU time                                                  0.3626
--------------------------------------------------------------------------------


  Job Finished at 16:31.06  3rd February   2020                               

