********************************************************************************
*                       GENERAL UTILITY LATTICE PROGRAM                        *
*                                 Julian Gale                                  *
*                       Curtin Institute for Computation                       *
*                           Department of Chemistry                            *
*                    Curtin University, Western Australia                      *
********************************************************************************
* Version = 5.1.1 * Last modified =  25th August 2019                          *
********************************************************************************
*  optimise     - perform optimisation run                                     *
*  conp         - constant pressure calculation                                *
*  nosymmetry   - turn off symmetry after initial structure generation         *
*  full         - generate full unit cell when symmetry is removed             *
*  conjugate    - use conjugate gradients minimiser                            *
********************************************************************************
* ASE calculation                                                              *
********************************************************************************


  Job Started  at 12:06.57  4th February   2020                               

  Number of CPUs =     1


  Total number of configurations input =      1

********************************************************************************
*  Input for Configuration =   1                                               *
********************************************************************************

  Formula = O9Sr3Ti3                                                    

  Number of irreducible atoms/shells =      15


  Total number atoms/shells =      15

  Dimensionality = 3               :  Bulk   



  Cartesian lattice vectors (Angstroms) :

        4.000000    0.000000    0.000000
        0.000000    4.000000    0.000000
        0.000000    0.000000    8.000000

  Cell parameters (Angstroms/Degrees):

  a =       4.0000    alpha =  90.0000
  b =       4.0000    beta  =  90.0000
  c =       8.0000    gamma =  90.0000

  Initial cell volume =         128.000000 Angs**3

  Temperature of configuration =  0.000     K 

  Pressure of configuration =         0.000 GPa 

  Fractional coordinates of asymmetric unit :

--------------------------------------------------------------------------------
   No.  Atomic       x           y          z         Charge      Occupancy
        Label      (Frac)      (Frac)     (Frac)        (e)         (Frac)  
--------------------------------------------------------------------------------
      1 O     c    0.000000    0.500000    0.250000    -2.00000    1.000000    
      2 O     c    0.500000 *  0.500000 *  0.250000 *  -2.00000    1.000000    
      3 O     c    0.000000 *  0.500000 *  0.500000 *  -2.00000    1.000000    
      4 O     c    0.500000 *  0.000000 *  0.500000 *  -2.00000    1.000000    
      5 O     c    0.500000 *  0.500000 *  0.750000 *  -2.00000    1.000000    
      6 O     c    0.000000 *  0.000000 *  0.000000 *  -2.00000    1.000000    
      7 O     c    0.000000 *  0.000000 *  0.500000 *  -2.00000    1.000000    
      8 O     c    0.500000 *  0.000000 *  0.000000 *  -2.00000    1.000000    
      9 O     c    0.000000 *  0.500000 *  0.750000 *  -2.00000    1.000000    
     10 Sr    c    0.750000 *  0.250000 *  0.375000 *   2.00000    1.000000    
     11 Sr    c    0.750000 *  0.750000 *  0.875000 *   2.00000    1.000000    
     12 Sr    c    0.750000 *  0.750000 *  0.125000 *   2.00000    1.000000    
     13 Ti    c    0.750000 *  0.250000 *  0.875000 *   4.00000    1.000000    
     14 Ti    c    0.250000 *  0.250000 *  0.125000 *   4.00000    1.000000    
     15 Ti    c    0.250000 *  0.750000 *  0.125000 *   4.00000    1.000000    
--------------------------------------------------------------------------------



********************************************************************************
*  General input information                                                   *
********************************************************************************

  Species output for all configurations : 

--------------------------------------------------------------------------------
  Species    Type    Atomic    Atomic    Charge       Radii (Angs)     Library
                     Number     Mass       (e)     Cova   Ionic  VDW   Symbol
--------------------------------------------------------------------------------
    O        Core        8      16.00  -2.000000   0.730  0.000  1.360          
    Sr       Core       38      87.62   2.000000   1.120  0.000  1.670          
    Ti       Core       22      47.88   4.000000   1.470  0.000  2.190          
--------------------------------------------------------------------------------


  Lattice summation method               =    Ewald          (3-D)
                                         =    Parry          (2-D)
                                         =    Saunders et al (1-D)
  Accuracy factor for lattice sums       =   12.000


  Time limit = Infinity

  Maximum range for interatomic potentials =    100000.000000 Angstroms

  General interatomic potentials :

--------------------------------------------------------------------------------
Atom  Types   Potential      Parameter       Value         Units   Cutoffs(Ang)
  1     2                                                            Min /  Max 
--------------------------------------------------------------------------------
O    c Sr   c Buckingham    Buckingham A     1952.3900    eV        0.000 10.000
                            Buckingham rho  0.33685000    Ang       
                            Buckingham C     19.220000    eV*Ang^6  
--------------------------------------------------------------------------------
O    c Ti   c Buckingham    Buckingham A     4590.7279    eV        0.000 10.000
                            Buckingham rho  0.26100000    Ang       
                            Buckingham C     0.0000000    eV*Ang^6  
--------------------------------------------------------------------------------
O    c O    c Buckingham    Buckingham A     1388.7700    eV        0.000 10.000
                            Buckingham rho  0.36262000    Ang       
                            Buckingham C     175.00000    eV*Ang^6  
--------------------------------------------------------------------------------
 Calling ------OPTIONS------

********************************************************************************
*  Output for configuration   1                                                *
********************************************************************************


  Components of energy : 

--------------------------------------------------------------------------------
  Interatomic potentials     =         252.05488473 eV    
  Monopole - monopole (real) =        -121.78183040 eV    
  Monopole - monopole (recip)=        -176.23510212 eV    
  Monopole - monopole (total)=        -298.01693251 eV    
--------------------------------------------------------------------------------
  Total lattice energy       =         -45.96204778 eV    
--------------------------------------------------------------------------------
  Total lattice energy       =           -4434.6350 kJ/(mole unit cells)
--------------------------------------------------------------------------------


  Number of variables =       48

  Maximum number of calculations  =          1000
  Maximum Hessian update interval =            10
  Maximum step size               =   1.000000000
  Maximum parameter tolerance     =   0.000010000
  Maximum function  tolerance     =   0.000010000
  Maximum gradient  tolerance     =   0.001000000
  Maximum gradient  component     =   0.010000000

  Cell parameters to be optimised using strains

  Conjugate gradient optimiser to be used

  Lower half triangular hessian to be used

  Minimiser to switch to BFGS with exact hessian
  When gradient norm is less than     0.100000

  Start of bulk optimisation :

  Cycle:      0 Energy:       -45.962048  Gnorm:     36.523722  CPU:    0.013
 Perform trimming
 Line minimisation2
 ALPHA BEFORE:    1.0000000000000000     
  ** Opt : line minimisation
left   ...       0.00000000     -45.96204778
centre ...       0.25000000    -151.94574012
right  ...       0.50000000    -221.62406934

left   ...       0.00000000     -45.96204778
centre ...       0.25000000    -151.94574012
right  ...       0.50000000    -221.62406934
new    ...       0.85480741    -287.03404440

__s__    ...       0.35480741

left   ...       0.25000000    -151.94574012
centre ...       0.50000000    -221.62406934
right  ...       0.85480741    -287.03404440
new    ...       1.26821821    -314.48515249

__s__    ...       0.41341080

left   ...       0.50000000    -221.62406934
centre ...       0.85480741    -287.03404440
right  ...       1.26821821    -314.48515249
new    ...       1.27774861    -314.41575039

__s__    ...       0.00953040

 ALPHA AFTER:    1.2682182118296077     
  Cycle:      1 Energy:      -314.485152  Gnorm:     13.410267  CPU:    0.024
 Perform trimming
 Line minimisation2
 ALPHA BEFORE:    1.2682182118296077     
  ** Opt : line minimisation
left   ...       0.00000000    -314.48515249
centre ...       0.31705455    -370.80072688
right  ...       0.63410911    -378.00898542

left   ...       0.00000000    -314.48515249
centre ...       0.31705455    -370.80072688
right  ...       0.63410911    -378.00898542
new    ...       0.52212095    -379.91588132

__s__    ...      -0.11198816

left   ...       0.31705455    -370.80072688
centre ...       0.52212095    -379.91588132
right  ...       0.63410911    -378.00898542
new    ...       0.53420707    -379.91549646

__s__    ...       0.01208613

 ALPHA AFTER:   0.52212094790919983     
  Cycle:      2 Energy:      -379.915881  Gnorm:      8.568949  CPU:    0.030
 Line minimisation2
 ALPHA BEFORE:   0.52212094790919983     
  ** Opt : line minimisation
left   ...       0.00000000    -379.91588132
centre ...       0.13053024    -397.25641924
right  ...       0.26106047    -408.42393032

left   ...       0.00000000    -379.91588132
centre ...       0.13053024    -397.25641924
right  ...       0.26106047    -408.42393032
new    ...       0.43193524    -415.52115264

__s__    ...       0.17087477

left   ...       0.13053024    -397.25641924
centre ...       0.26106047    -408.42393032
right  ...       0.43193524    -415.52115264
new    ...       0.48869066    -416.29538504

__s__    ...       0.05675542

left   ...       0.26106047    -408.42393032
centre ...       0.43193524    -415.52115264
right  ...       0.48869066    -416.29538504
new    ...       0.51597605    -416.41812379

__s__    ...       0.02728539

 ALPHA AFTER:   0.51597605100345589     
  Cycle:      3 Energy:      -416.418124  Gnorm:      6.097445  CPU:    0.035
 Line minimisation2
 ALPHA BEFORE:   0.51597605100345589     
  ** Opt : line minimisation
left   ...       0.00000000    -416.41812379
centre ...       0.12899401    -426.11071668
right  ...       0.25798803    -432.87290986

left   ...       0.00000000    -416.41812379
centre ...       0.12899401    -426.11071668
right  ...       0.25798803    -432.87290986
new    ...       0.49115773    -437.37092697

__s__    ...       0.23316970

left   ...       0.12899401    -426.11071668
centre ...       0.25798803    -432.87290986
right  ...       0.49115773    -437.37092697
new    ...       0.48000647    -437.38732200

__s__    ...      -0.01115126

 ALPHA AFTER:   0.48000647124612084     
  Cycle:      4 Energy:      -437.387322  Gnorm:      3.021298  CPU:    0.039
 Line minimisation2
 ALPHA BEFORE:   0.48000647124612084     
  ** Opt : line minimisation
left   ...       0.00000000    -437.38732200
centre ...       0.12000162    -439.56411347
right  ...       0.24000324    -441.10247142

left   ...       0.00000000    -437.38732200
centre ...       0.12000162    -439.56411347
right  ...       0.24000324    -441.10247142
new    ...       0.46915617    -442.12422413

__s__    ...       0.22915293

left   ...       0.12000162    -439.56411347
centre ...       0.24000324    -441.10247142
right  ...       0.46915617    -442.12422413
new    ...       0.44768361    -442.14244666

__s__    ...      -0.02147255

 ALPHA AFTER:   0.44768361479788837     
  Cycle:      5 Energy:      -442.142447  Gnorm:      3.216024  CPU:    0.043
 Line minimisation2
 ALPHA BEFORE:   0.44768361479788837     
  ** Opt : line minimisation
left   ...       0.00000000    -442.14244666
centre ...       0.11192090    -444.32214878
right  ...       0.22384181    -445.55860860

left   ...       0.00000000    -442.14244666
centre ...       0.11192090    -444.32214878
right  ...       0.22384181    -445.55860860
new    ...       0.31459414    -445.79577918

__s__    ...       0.09075233

 ALPHA AFTER:   0.31459413622145116     
  Cycle:      6 Energy:      -445.795779  Gnorm:      2.259055  CPU:    0.046
 Line minimisation2
 ALPHA BEFORE:   0.31459413622145116     
  ** Opt : line minimisation
left   ...       0.00000000    -445.79577918
centre ...       0.07864853    -446.58237916
right  ...       0.15729707    -447.21935784

left   ...       0.00000000    -445.79577918
centre ...       0.07864853    -446.58237916
right  ...       0.15729707    -447.21935784
new    ...       0.45280102    -448.19755165

__s__    ...       0.29550396

left   ...       0.07864853    -446.58237916
centre ...       0.15729707    -447.21935784
right  ...       0.45280102    -448.19755165
new    ...       0.43436551    -448.20507453

__s__    ...      -0.01843552

 ALPHA AFTER:   0.43436550891310094     
  Cycle:      7 Energy:      -448.205075  Gnorm:      2.196026  CPU:    0.050
 Line minimisation2
 ALPHA BEFORE:   0.43436550891310094     
  ** Opt : line minimisation
left   ...       0.00000000    -448.20507453
centre ...       0.10859138    -449.24822229
right  ...       0.21718275    -450.05251924

left   ...       0.00000000    -448.20507453
centre ...       0.10859138    -449.24822229
right  ...       0.21718275    -450.05251924
new    ...       0.52855347    -451.13930305

__s__    ...       0.31137071

left   ...       0.10859138    -449.24822229
centre ...       0.21718275    -450.05251924
right  ...       0.52855347    -451.13930305
new    ...       0.56000859    -451.15649231

__s__    ...       0.03145512

 ALPHA AFTER:   0.56000859419336890     
  Cycle:      8 Energy:      -451.156492  Gnorm:      2.187116  CPU:    0.054
 Line minimisation2
 ALPHA BEFORE:   0.56000859419336890     
  ** Opt : line minimisation
left   ...       0.00000000    -451.15649231
centre ...       0.14000215    -452.45330858
right  ...       0.28000430    -453.18608453

left   ...       0.00000000    -451.15649231
centre ...       0.14000215    -452.45330858
right  ...       0.28000430    -453.18608453
new    ...       0.39188775    -453.36400562

__s__    ...       0.11188345

 ALPHA AFTER:   0.39188774860696490     
  Cycle:      9 Energy:      -453.364006  Gnorm:      2.014606  CPU:    0.059
 Line minimisation2
 ALPHA BEFORE:   0.39188774860696490     
  ** Opt : line minimisation
left   ...       0.00000000    -453.36400562
centre ...       0.09797194    -453.97478327
right  ...       0.19594387    -454.01768205

left   ...       0.00000000    -453.36400562
centre ...       0.09797194    -453.97478327
right  ...       0.19594387    -454.01768205
new    ...       0.15435892    -454.06639445

__s__    ...      -0.04158496

 ALPHA AFTER:   0.15435891522753653     
  Cycle:     10 Energy:      -454.066394  Gnorm:      1.335786  CPU:    0.063
 Line minimisation2
 ALPHA BEFORE:   0.15435891522753653     
  ** Opt : line minimisation
left   ...       0.00000000    -454.06639445
centre ...       0.03858973    -454.21730861
right  ...       0.07717946    -454.35655197

left   ...       0.00000000    -454.06639445
centre ...       0.03858973    -454.21730861
right  ...       0.07717946    -454.35655197
new    ...       0.51829540    -455.04353402

__s__    ...       0.44111594

left   ...       0.03858973    -454.21730861
centre ...       0.07717946    -454.35655197
right  ...       0.51829540    -455.04353402
new    ...       0.47986977    -455.05496181

__s__    ...      -0.03842563

 ALPHA AFTER:   0.47986976874625675     
  Cycle:     11 Energy:      -455.054962  Gnorm:      1.170089  CPU:    0.069
 Line minimisation2
 ALPHA BEFORE:   0.47986976874625675     
  ** Opt : line minimisation
left   ...       0.00000000    -455.05496181
centre ...       0.11996744    -455.37670949
right  ...       0.23993488    -455.61344471

left   ...       0.00000000    -455.05496181
centre ...       0.11996744    -455.37670949
right  ...       0.23993488    -455.61344471
new    ...       0.51402597    -455.84693844

__s__    ...       0.27409109

left   ...       0.11996744    -455.37670949
centre ...       0.23993488    -455.61344471
right  ...       0.51402597    -455.84693844
new    ...       0.52664982    -455.84770630

__s__    ...       0.01262384

 ALPHA AFTER:   0.52664981774159758     
  Cycle:     12 Energy:      -455.847706  Gnorm:      1.587657  CPU:    0.074
 Perform trimming
 Line minimisation2
 ALPHA BEFORE:   0.52664981774159758     
  ** Opt : line minimisation
left   ...       0.00000000    -455.84770630
centre ...       0.13166245    -456.31666169
right  ...       0.26332491    -456.54907495

left   ...       0.00000000    -455.84770630
centre ...       0.13166245    -456.31666169
right  ...       0.26332491    -456.54907495
new    ...       0.32685795    -456.58266993

__s__    ...       0.06353304

 ALPHA AFTER:   0.32685795164805498     
  Cycle:     13 Energy:      -456.582670  Gnorm:      1.742252  CPU:    0.079
 Line minimisation2
 ALPHA BEFORE:   0.32685795164805498     
  ** Opt : line minimisation
left   ...       0.00000000    -456.58266993
centre ...       0.08171449    -457.09389229
right  ...       0.16342898    -457.47685696

left   ...       0.00000000    -456.58266993
centre ...       0.08171449    -457.09389229
right  ...       0.16342898    -457.47685696
new    ...       0.36656307    -457.94678013

__s__    ...       0.20313409

left   ...       0.08171449    -457.09389229
centre ...       0.16342898    -457.47685696
right  ...       0.36656307    -457.94678013
new    ...       0.40382616    -457.96740162

__s__    ...       0.03726309

 ALPHA AFTER:   0.40382616310448660     
  Cycle:     14 Energy:      -457.967402  Gnorm:      1.579740  CPU:    0.087
 Line minimisation2
 ALPHA BEFORE:   0.40382616310448660     
  ** Opt : line minimisation
left   ...       0.00000000    -457.96740162
centre ...       0.10095654    -458.50516544
right  ...       0.20191308    -458.91961970

left   ...       0.00000000    -457.96740162
centre ...       0.10095654    -458.50516544
right  ...       0.20191308    -458.91961970
new    ...       0.49075862    -459.38395041

__s__    ...       0.28884554

left   ...       0.10095654    -458.50516544
centre ...       0.20191308    -458.91961970
right  ...       0.49075862    -459.38395041
new    ...       0.47177401    -459.38811924

__s__    ...      -0.01898461

 ALPHA AFTER:   0.47177401355014514     
  Cycle:     15 Energy:      -459.388119  Gnorm:      1.612718  CPU:    0.092
 Line minimisation2
 ALPHA BEFORE:   0.47177401355014514     
  ** Opt : line minimisation
left   ...       0.00000000    -459.38811924
centre ...       0.11794350    -460.00001674
right  ...       0.23588701    -460.43650124

left   ...       0.00000000    -459.38811924
centre ...       0.11794350    -460.00001674
right  ...       0.23588701    -460.43650124
new    ...       0.47039699    -460.52884564

__s__    ...       0.23450999

 ALPHA AFTER:   0.47039699268810148     
  Cycle:     16 Energy:      -460.528846  Gnorm:      1.716570  CPU:    0.097
 Line minimisation2
 ALPHA BEFORE:   0.47039699268810148     
  ** Opt : line minimisation
left   ...       0.00000000    -460.52884564
centre ...       0.11759925    -460.91867994
right  ...       0.23519850    -461.06899080

left   ...       0.00000000    -460.52884564
centre ...       0.11759925    -460.91867994
right  ...       0.23519850    -461.06899080
new    ...       0.25019725    -461.06834619

__s__    ...       0.01499876

 ALPHA AFTER:   0.23519849634405074     
  Cycle:     17 Energy:      -461.068991  Gnorm:      1.775465  CPU:    0.101
 Line minimisation2
 ALPHA BEFORE:   0.23519849634405074     
  ** Opt : line minimisation
left   ...       0.00000000    -461.06899080
centre ...       0.05879962    -461.45224796
right  ...       0.11759925    -461.75520069

left   ...       0.00000000    -461.06899080
centre ...       0.05879962    -461.45224796
right  ...       0.11759925    -461.75520069
new    ...       0.31002416    -462.27870193

__s__    ...       0.19242491

left   ...       0.05879962    -461.45224796
centre ...       0.11759925    -461.75520069
right  ...       0.31002416    -462.27870193
new    ...       0.35434232    -462.31323308

__s__    ...       0.04431816

 ALPHA AFTER:   0.35434232019560935     
  Cycle:     18 Energy:      -462.313233  Gnorm:      1.438907  CPU:    0.107
 Line minimisation2
 ALPHA BEFORE:   0.35434232019560935     
  ** Opt : line minimisation
left   ...       0.00000000    -462.31323308
centre ...       0.08858558    -462.71202976
right  ...       0.17717116    -463.02897950

left   ...       0.00000000    -462.31323308
centre ...       0.08858558    -462.71202976
right  ...       0.17717116    -463.02897950
new    ...       0.47592326    -463.50075329

__s__    ...       0.29875210

left   ...       0.08858558    -462.71202976
centre ...       0.17717116    -463.02897950
right  ...       0.47592326    -463.50075329
new    ...       0.47955910    -463.50083454

__s__    ...       0.00363584

 ALPHA AFTER:   0.47955909762469262     
  Cycle:     19 Energy:      -463.500835  Gnorm:      1.276180  CPU:    0.113
 Line minimisation2
 ALPHA BEFORE:   0.47955909762469262     
  ** Opt : line minimisation
left   ...       0.00000000    -463.50083454
centre ...       0.11988977    -463.85442878
right  ...       0.23977955    -464.02900535

left   ...       0.00000000    -463.50083454
centre ...       0.11988977    -463.85442878
right  ...       0.23977955    -464.02900535
new    ...       0.29675021    -464.04814918

__s__    ...       0.05697066

 ALPHA AFTER:   0.29675020588786577     
  Cycle:     20 Energy:      -464.048149  Gnorm:      0.929504  CPU:    0.118
 Line minimisation2
 ALPHA BEFORE:   0.29675020588786577     
  ** Opt : line minimisation
left   ...       0.00000000    -464.04814918
centre ...       0.07418755    -464.18183946
right  ...       0.14837510    -464.29366371

left   ...       0.00000000    -464.04814918
centre ...       0.07418755    -464.18183946
right  ...       0.14837510    -464.29366371
new    ...       0.49068099    -464.50823893

__s__    ...       0.34230589

left   ...       0.07418755    -464.18183946
centre ...       0.14837510    -464.29366371
right  ...       0.49068099    -464.50823893
new    ...       0.46779038    -464.50997212

__s__    ...      -0.02289061

 ALPHA AFTER:   0.46779038131854683     
  Cycle:     21 Energy:      -464.509972  Gnorm:      0.864207  CPU:    0.123
 Line minimisation2
 ALPHA BEFORE:   0.46779038131854683     
  ** Opt : line minimisation
left   ...       0.00000000    -464.50997212
centre ...       0.11694760    -464.69319729
right  ...       0.23389519    -464.84916366

left   ...       0.00000000    -464.50997212
centre ...       0.11694760    -464.69319729
right  ...       0.23389519    -464.84916366
new    ...       0.84455936    -465.18661408

__s__    ...       0.61066417

left   ...       0.11694760    -464.69319729
centre ...       0.23389519    -464.84916366
right  ...       0.84455936    -465.18661408
new    ...       0.79662208    -465.19041742

__s__    ...      -0.04793728

 ALPHA AFTER:   0.79662208270339685     
  Cycle:     22 Energy:      -465.190417  Gnorm:      0.975815  CPU:    0.129
 Line minimisation2
 ALPHA BEFORE:   0.79662208270339685     
  ** Opt : line minimisation
left   ...       0.00000000    -465.19041742
centre ...       0.19915552    -465.49466992
right  ...       0.39831104    -465.54374188

left   ...       0.00000000    -465.19041742
centre ...       0.19915552    -465.49466992
right  ...       0.39831104    -465.54374188
new    ...       0.33703147    -465.55659247

__s__    ...      -0.06127957

 ALPHA AFTER:   0.33703146726144850     
  Cycle:     23 Energy:      -465.556592  Gnorm:      0.534344  CPU:    0.134
 Line minimisation2
 ALPHA BEFORE:   0.33703146726144850     
  ** Opt : line minimisation
left   ...       0.00000000    -465.55659247
centre ...       0.08425787    -465.60690616
right  ...       0.16851573    -465.64755330

left   ...       0.00000000    -465.55659247
centre ...       0.08425787    -465.60690616
right  ...       0.16851573    -465.64755330
new    ...       0.48068512    -465.71690687

__s__    ...       0.31216938

left   ...       0.08425787    -465.60690616
centre ...       0.16851573    -465.64755330
right  ...       0.48068512    -465.71690687
new    ...       0.49381050    -465.71682964

__s__    ...       0.01312538

 ALPHA AFTER:   0.48068511771897715     
  Cycle:     24 Energy:      -465.716907  Gnorm:      0.512954  CPU:    0.140
 Line minimisation2
 ALPHA BEFORE:   0.48068511771897715     
  ** Opt : line minimisation
left   ...       0.00000000    -465.71690687
centre ...       0.12017128    -465.77847710
right  ...       0.24034256    -465.81815465

left   ...       0.00000000    -465.71690687
centre ...       0.12017128    -465.77847710
right  ...       0.24034256    -465.81815465
new    ...       0.39805117    -465.83807285

__s__    ...       0.15770862

 ALPHA AFTER:   0.39805117437187598     
  Cycle:     25 Energy:      -465.838073  Gnorm:      0.494539  CPU:    0.145
 Line minimisation2
 ALPHA BEFORE:   0.39805117437187598     
  ** Opt : line minimisation
left   ...       0.00000000    -465.83807285
centre ...       0.09951279    -465.88852167
right  ...       0.19902559    -465.92618931

left   ...       0.00000000    -465.83807285
centre ...       0.09951279    -465.88852167
right  ...       0.19902559    -465.92618931
new    ...       0.44254519    -465.96641516

__s__    ...       0.24351960

left   ...       0.09951279    -465.88852167
centre ...       0.19902559    -465.92618931
right  ...       0.44254519    -465.96641516
new    ...       0.45359015    -465.96653339

__s__    ...       0.01104496

 ALPHA AFTER:   0.45359015089525001     
  Cycle:     26 Energy:      -465.966533  Gnorm:      0.490510  CPU:    0.150
 Line minimisation2
 ALPHA BEFORE:   0.45359015089525001     
  ** Opt : line minimisation
left   ...       0.00000000    -465.96653339
centre ...       0.11339754    -466.02286551
right  ...       0.22679508    -466.06606640

left   ...       0.00000000    -465.96653339
centre ...       0.11339754    -466.02286551
right  ...       0.22679508    -466.06606640
new    ...       0.54316714    -466.11667634

__s__    ...       0.31637206

left   ...       0.11339754    -466.02286551
centre ...       0.22679508    -466.06606640
right  ...       0.54316714    -466.11667634
new    ...       0.54052514    -466.11668264

__s__    ...      -0.00264199

 ALPHA AFTER:   0.54052514223166714     
  Cycle:     27 Energy:      -466.116683  Gnorm:      0.443907  CPU:    0.156
 Line minimisation2
 ALPHA BEFORE:   0.54052514223166714     
  ** Opt : line minimisation
left   ...       0.00000000    -466.11668264
centre ...       0.13513129    -466.17178952
right  ...       0.27026257    -466.21486014

left   ...       0.00000000    -466.11668264
centre ...       0.13513129    -466.17178952
right  ...       0.27026257    -466.21486014
new    ...       0.68625177    -466.27296472

__s__    ...       0.41598920

left   ...       0.13513129    -466.17178952
centre ...       0.27026257    -466.21486014
right  ...       0.68625177    -466.27296472
new    ...       0.69321930    -466.27299589

__s__    ...       0.00696753

 ALPHA AFTER:   0.69321930130567555     
  Cycle:     28 Energy:      -466.272996  Gnorm:      0.518600  CPU:    0.162
 Line minimisation2
 ALPHA BEFORE:   0.69321930130567555     
  ** Opt : line minimisation
left   ...       0.00000000    -466.27299589
centre ...       0.17330483    -466.35945217
right  ...       0.34660965    -466.40363210

left   ...       0.00000000    -466.27299589
centre ...       0.17330483    -466.35945217
right  ...       0.34660965    -466.40363210
new    ...       0.44106547    -466.41003421

__s__    ...       0.09445582

 ALPHA AFTER:   0.44106547322697209     
  Cycle:     29 Energy:      -466.410034  Gnorm:      0.458282  CPU:    0.167
 Line minimisation2
 ALPHA BEFORE:   0.44106547322697209     
  ** Opt : line minimisation
left   ...       0.00000000    -466.41003421
centre ...       0.11026637    -466.45158882
right  ...       0.22053274    -466.47111169

left   ...       0.00000000    -466.41003421
centre ...       0.11026637    -466.45158882
right  ...       0.22053274    -466.47111169
new    ...       0.26310923    -466.47272733

__s__    ...       0.04257649

 ALPHA AFTER:   0.26310922916126572     
  Cycle:     30 Energy:      -466.472727  Gnorm:      0.324855  CPU:    0.171
 Line minimisation2
 ALPHA BEFORE:   0.26310922916126572     
  ** Opt : line minimisation
left   ...       0.00000000    -466.47272733
centre ...       0.06577731    -466.48749564
right  ...       0.13155461    -466.50010178

left   ...       0.00000000    -466.47272733
centre ...       0.06577731    -466.48749564
right  ...       0.13155461    -466.50010178
new    ...       0.48217063    -466.53083768

__s__    ...       0.35061601

left   ...       0.06577731    -466.48749564
centre ...       0.13155461    -466.50010178
right  ...       0.48217063    -466.53083768
new    ...       0.48237666    -466.53083723

__s__    ...       0.00020603

 ALPHA AFTER:   0.48217062519140652     
  Cycle:     31 Energy:      -466.530838  Gnorm:      0.290437  CPU:    0.175
 Line minimisation2
 ALPHA BEFORE:   0.48217062519140652     
  ** Opt : line minimisation
left   ...       0.00000000    -466.53083768
centre ...       0.12054266    -466.55197359
right  ...       0.24108531    -466.56953036

left   ...       0.00000000    -466.53083768
centre ...       0.12054266    -466.55197359
right  ...       0.24108531    -466.56953036
new    ...       0.77211182    -466.60148289

__s__    ...       0.53102651

left   ...       0.12054266    -466.55197359
centre ...       0.24108531    -466.56953036
right  ...       0.77211182    -466.60148289
new    ...       0.73593487    -466.60155626

__s__    ...      -0.03617695

 ALPHA AFTER:   0.73593487132813318     
  Cycle:     32 Energy:      -466.601556  Gnorm:      0.322139  CPU:    0.179
 Line minimisation2
 ALPHA BEFORE:   0.73593487132813318     
  ** Opt : line minimisation
left   ...       0.00000000    -466.60155626
centre ...       0.18398372    -466.63820829
right  ...       0.36796744    -466.65915751

left   ...       0.00000000    -466.60155626
centre ...       0.18398372    -466.63820829
right  ...       0.36796744    -466.65915751
new    ...       0.52142965    -466.66484588

__s__    ...       0.15346222

 ALPHA AFTER:   0.52142965142337550     
  Cycle:     33 Energy:      -466.664846  Gnorm:      0.311515  CPU:    0.183
 Line minimisation2
 ALPHA BEFORE:   0.52142965142337550     
  ** Opt : line minimisation
left   ...       0.00000000    -466.66484588
centre ...       0.13035741    -466.69043427
right  ...       0.26071483    -466.70890047

left   ...       0.00000000    -466.66484588
centre ...       0.13035741    -466.69043427
right  ...       0.26071483    -466.70890047
new    ...       0.53352382    -466.72439774

__s__    ...       0.27280900

left   ...       0.13035741    -466.69043427
centre ...       0.26071483    -466.70890047
right  ...       0.53352382    -466.72439774
new    ...       0.53207422    -466.72439844

__s__    ...      -0.00144960

 ALPHA AFTER:   0.53207421971984026     
  Cycle:     34 Energy:      -466.724398  Gnorm:      0.302497  CPU:    0.187
 Line minimisation2
 ALPHA BEFORE:   0.53207421971984026     
  ** Opt : line minimisation
left   ...       0.00000000    -466.72439844
centre ...       0.13301855    -466.74848501
right  ...       0.26603711    -466.76492353

left   ...       0.00000000    -466.72439844
centre ...       0.13301855    -466.74848501
right  ...       0.26603711    -466.76492353
new    ...       0.48543436    -466.77531749

__s__    ...       0.21939725

left   ...       0.13301855    -466.74848501
centre ...       0.26603711    -466.76492353
right  ...       0.48543436    -466.77531749
new    ...       0.48527965    -466.77531776

__s__    ...      -0.00015471

 ALPHA AFTER:   0.48527964915730509     
  Cycle:     35 Energy:      -466.775318  Gnorm:      0.290998  CPU:    0.192
 Line minimisation2
 ALPHA BEFORE:   0.48527964915730509     
  ** Opt : line minimisation
left   ...       0.00000000    -466.77531776
centre ...       0.12131991    -466.79755597
right  ...       0.24263982    -466.81677163

left   ...       0.00000000    -466.77531776
centre ...       0.12131991    -466.79755597
right  ...       0.24263982    -466.81677163
new    ...       0.95326341    -466.87769121

__s__    ...       0.71062359

left   ...       0.12131991    -466.79755597
centre ...       0.24263982    -466.81677163
right  ...       0.95326341    -466.87769121
new    ...       1.08872084    -466.87911216

__s__    ...       0.13545742

 ALPHA AFTER:    1.0887208350467763     
  Cycle:     36 Energy:      -466.879112  Gnorm:      0.421739  CPU:    0.196
 Perform trimming
 Line minimisation2
 ALPHA BEFORE:    1.0887208350467763     
  ** Opt : line minimisation
left   ...       0.00000000    -466.87911216
centre ...       0.27218021    -466.93546839
right  ...       0.54436042    -466.94921655

left   ...       0.00000000    -466.87911216
centre ...       0.27218021    -466.93546839
right  ...       0.54436042    -466.94921655
new    ...       0.49609357    -466.95006398

__s__    ...      -0.04826685

 ALPHA AFTER:   0.49609356752738359     
  Cycle:     37 Energy:      -466.950064  Gnorm:      0.364247  CPU:    0.200
 Line minimisation2
 ALPHA BEFORE:   0.49609356752738359     
  ** Opt : line minimisation
left   ...       0.00000000    -466.95006398
centre ...       0.12402339    -466.98345368
right  ...       0.24804678    -467.00961197

left   ...       0.00000000    -466.95006398
centre ...       0.12402339    -466.98345368
right  ...       0.24804678    -467.00961197
new    ...       0.63466634    -467.04372772

__s__    ...       0.38661955

left   ...       0.12402339    -466.98345368
centre ...       0.24804678    -467.00961197
right  ...       0.63466634    -467.04372772
new    ...       0.62501446    -467.04389909

__s__    ...      -0.00965188

 ALPHA AFTER:   0.62501445635957587     
  Cycle:     38 Energy:      -467.043899  Gnorm:      0.383409  CPU:    0.204
 Line minimisation2
 ALPHA BEFORE:   0.62501445635957587     
  ** Opt : line minimisation
left   ...       0.00000000    -467.04389909
centre ...       0.15625361    -467.08900095
right  ...       0.31250723    -467.12045786

left   ...       0.00000000    -467.04389909
centre ...       0.15625361    -467.08900095
right  ...       0.31250723    -467.12045786
new    ...       0.59460535    -467.13986439

__s__    ...       0.28209812

left   ...       0.15625361    -467.08900095
centre ...       0.31250723    -467.12045786
right  ...       0.59460535    -467.13986439
new    ...       0.56732929    -467.13968331

__s__    ...      -0.02727606

 ALPHA AFTER:   0.59460535170023698     
  Cycle:     39 Energy:      -467.139864  Gnorm:      0.472029  CPU:    0.208
 Line minimisation2
 ALPHA BEFORE:   0.59460535170023698     
  ** Opt : line minimisation
left   ...       0.00000000    -467.13986439
centre ...       0.14865134    -467.19037339
right  ...       0.29730268    -467.19242370

left   ...       0.00000000    -467.13986439
centre ...       0.14865134    -467.19037339
right  ...       0.29730268    -467.19242370
new    ...       0.22926651    -467.19736764

__s__    ...      -0.06803617

 ALPHA AFTER:   0.22926651036597182     
  Cycle:     40 Energy:      -467.197368  Gnorm:      0.305386  CPU:    0.212
 Line minimisation2
 ALPHA BEFORE:   0.22926651036597182     
  ** Opt : line minimisation
left   ...       0.00000000    -467.19736764
centre ...       0.05731663    -467.20871648
right  ...       0.11463326    -467.21873171

left   ...       0.00000000    -467.19736764
centre ...       0.05731663    -467.20871648
right  ...       0.11463326    -467.21873171
new    ...       0.51641411    -467.25089836

__s__    ...       0.40178086

left   ...       0.05731663    -467.20871648
centre ...       0.11463326    -467.21873171
right  ...       0.51641411    -467.25089836
new    ...       0.50963739    -467.25093480

__s__    ...      -0.00677672

 ALPHA AFTER:   0.50963739498197369     
  Cycle:     41 Energy:      -467.250935  Gnorm:      0.277903  CPU:    0.216
 Line minimisation2
 ALPHA BEFORE:   0.50963739498197369     
  ** Opt : line minimisation
left   ...       0.00000000    -467.25093480
centre ...       0.12740935    -467.27192373
right  ...       0.25481870    -467.29043928

left   ...       0.00000000    -467.25093480
centre ...       0.12740935    -467.27192373
right  ...       0.25481870    -467.29043928
new    ...       1.14488887    -467.35442867

__s__    ...       0.89007017

left   ...       0.12740935    -467.27192373
centre ...       0.25481870    -467.29043928
right  ...       1.14488887    -467.35442867
new    ...       1.19793651    -467.35448622

__s__    ...       0.05304764

 ALPHA AFTER:    1.1979365103102524     
  Cycle:     42 Energy:      -467.354486  Gnorm:      0.446253  CPU:    0.220
 Perform trimming
 Line minimisation2
 ALPHA BEFORE:    1.1979365103102524     
  ** Opt : line minimisation
left   ...       0.00000000    -467.35448622
centre ...       0.29948413    -467.41984449
right  ...       0.59896826    -467.47069293

left   ...       0.00000000    -467.35448622
centre ...       0.29948413    -467.41984449
right  ...       0.59896826    -467.47069293
new    ...       1.49874168    -467.52709868

__s__    ...       0.89977342

left   ...       0.29948413    -467.41984449
centre ...       0.59896826    -467.47069293
right  ...       1.49874168    -467.52709868
new    ...       1.39984255    -467.52840270

__s__    ...      -0.09889913

 ALPHA AFTER:    1.3998425486536150     
  Cycle:     43 Energy:      -467.528403  Gnorm:      0.761794  CPU:    0.225
 Perform trimming
 Line minimisation2
 ALPHA BEFORE:    1.3998425486536150     
  ** Opt : line minimisation
left   ...       0.00000000    -467.52840270
centre ...       0.34996064    -467.71382229
right  ...       0.69992127    -467.82093398

left   ...       0.00000000    -467.52840270
centre ...       0.34996064    -467.71382229
right  ...       0.69992127    -467.82093398
new    ...       1.00362674    -467.85279136

__s__    ...       0.30370546

 ALPHA AFTER:    1.0036267352560184     
  Cycle:     44 Energy:      -467.852791  Gnorm:      0.731570  CPU:    0.228
 Line minimisation2
 ALPHA BEFORE:    1.0036267352560184     
  ** Opt : line minimisation
left   ...       0.00000000    -467.85279136
centre ...       0.25090668    -468.06762815
right  ...       0.50181337    -468.07917564

left   ...       0.00000000    -467.85279136
centre ...       0.25090668    -468.06762815
right  ...       0.50181337    -468.07917564
new    ...       0.39061234    -468.10024451

__s__    ...      -0.11120103

 ALPHA AFTER:   0.39061234104590897     
  Cycle:     45 Energy:      -468.100245  Gnorm:      0.625258  CPU:    0.232
 Line minimisation2
 ALPHA BEFORE:   0.39061234104590897     
  ** Opt : line minimisation
left   ...       0.00000000    -468.10024451
centre ...       0.09765309    -468.18314288
right  ...       0.19530617    -468.25722767

left   ...       0.00000000    -468.10024451
centre ...       0.09765309    -468.18314288
right  ...       0.19530617    -468.25722767
new    ...       0.96732774    -468.44648140

__s__    ...       0.77202157

left   ...       0.09765309    -468.18314288
centre ...       0.19530617    -468.25722767
right  ...       0.96732774    -468.44648140
new    ...       0.78889952    -468.47322951

__s__    ...      -0.17842821

 ALPHA AFTER:   0.78889952150111742     
  Cycle:     46 Energy:      -468.473230  Gnorm:      0.572637  CPU:    0.236
 Line minimisation2
 ALPHA BEFORE:   0.78889952150111742     
  ** Opt : line minimisation
left   ...       0.00000000    -468.47322951
centre ...       0.19722488    -468.59841306
right  ...       0.39444976    -468.68050220

left   ...       0.00000000    -468.47322951
centre ...       0.19722488    -468.59841306
right  ...       0.39444976    -468.68050220
new    ...       0.67152453    -468.72468490

__s__    ...       0.27707477

 ALPHA AFTER:   0.67152453143618906     
  Cycle:     47 Energy:      -468.724685  Gnorm:      0.764224  CPU:    0.239
 Perform trimming
 Line minimisation2
 ALPHA BEFORE:   0.67152453143618906     
  ** Opt : line minimisation
left   ...       0.00000000    -468.72468490
centre ...       0.16788113    -468.87785658
right  ...       0.33576227    -468.97348333

left   ...       0.00000000    -468.72468490
centre ...       0.16788113    -468.87785658
right  ...       0.33576227    -468.97348333
new    ...       0.53080244    -469.01143680

__s__    ...       0.19504018

 ALPHA AFTER:   0.53080244336845117     
  Cycle:     48 Energy:      -469.011437  Gnorm:      0.579624  CPU:    0.243
 Line minimisation2
 ALPHA BEFORE:   0.53080244336845117     
  ** Opt : line minimisation
left   ...       0.00000000    -469.01143680
centre ...       0.13270061    -469.10142496
right  ...       0.26540122    -469.17084216

left   ...       0.00000000    -469.01143680
centre ...       0.13270061    -469.10142496
right  ...       0.26540122    -469.17084216
new    ...       0.64685255    -469.25133884

__s__    ...       0.38145133

left   ...       0.13270061    -469.10142496
centre ...       0.26540122    -469.17084216
right  ...       0.64685255    -469.25133884
new    ...       0.62995850    -469.25171840

__s__    ...      -0.01689404

 ALPHA AFTER:   0.62995850431850953     
  Cycle:     49 Energy:      -469.251718  Gnorm:      0.590231  CPU:    0.247
 Line minimisation2
 ALPHA BEFORE:   0.62995850431850953     
  ** Opt : line minimisation
left   ...       0.00000000    -469.25171840
centre ...       0.15748963    -469.34840011
right  ...       0.31497925    -469.38762951

left   ...       0.00000000    -469.25171840
centre ...       0.15748963    -469.34840011
right  ...       0.31497925    -469.38762951
new    ...       0.34377103    -469.38855797

__s__    ...       0.02879177

 ALPHA AFTER:   0.34377102681641702     
  Cycle:     50 Energy:      -469.388558  Gnorm:      0.462022  CPU:    0.251
 Line minimisation2
 ALPHA BEFORE:   0.34377102681641702     
  ** Opt : line minimisation
left   ...       0.00000000    -469.38855797
centre ...       0.08594276    -469.42683856
right  ...       0.17188551    -469.45875909

left   ...       0.00000000    -469.38855797
centre ...       0.08594276    -469.42683856
right  ...       0.17188551    -469.45875909
new    ...       0.56025214    -469.52114880

__s__    ...       0.38836662

left   ...       0.08594276    -469.42683856
centre ...       0.17188551    -469.45875909
right  ...       0.56025214    -469.52114880
new    ...       0.54682563    -469.52143998

__s__    ...      -0.01342650

 ALPHA AFTER:   0.54682563368575920     
  Cycle:     51 Energy:      -469.521440  Gnorm:      0.574619  CPU:    0.255
 Perform trimming
 Line minimisation2
 ALPHA BEFORE:   0.54682563368575920     
  ** Opt : line minimisation
left   ...       0.00000000    -469.52143998
centre ...       0.13670641    -469.59784157
right  ...       0.27341282    -469.65606182

left   ...       0.00000000    -469.52143998
centre ...       0.13670641    -469.59784157
right  ...       0.27341282    -469.65606182
new    ...       0.64282089    -469.73080957

__s__    ...       0.36940807

left   ...       0.13670641    -469.59784157
centre ...       0.27341282    -469.65606182
right  ...       0.64282089    -469.73080957
new    ...       0.68718687    -469.73196969

__s__    ...       0.04436599

 ALPHA AFTER:   0.68718687435202896     
  Cycle:     52 Energy:      -469.731970  Gnorm:      0.512793  CPU:    0.259
 Line minimisation2
 ALPHA BEFORE:   0.68718687435202896     
  ** Opt : line minimisation
left   ...       0.00000000    -469.73196969
centre ...       0.17179672    -469.82386182
right  ...       0.34359344    -469.89113331

left   ...       0.00000000    -469.73196969
centre ...       0.17179672    -469.82386182
right  ...       0.34359344    -469.89113331
new    ...       0.72709900    -469.95188933

__s__    ...       0.38350556

left   ...       0.17179672    -469.82386182
centre ...       0.34359344    -469.89113331
right  ...       0.72709900    -469.95188933
new    ...       0.72400429    -469.95188957

__s__    ...      -0.00309471

 ALPHA AFTER:   0.72400428953337381     
  Cycle:     53 Energy:      -469.951890  Gnorm:      0.673925  CPU:    0.264
 Perform trimming
 Line minimisation2
 ALPHA BEFORE:   0.72400428953337381     
  ** Opt : line minimisation
left   ...       0.00000000    -469.95188957
centre ...       0.18100107    -470.07513949
right  ...       0.36200214    -470.16502413

left   ...       0.00000000    -469.95188957
centre ...       0.18100107    -470.07513949
right  ...       0.36200214    -470.16502413
new    ...       0.75911068    -470.24708821

__s__    ...       0.39710853

left   ...       0.18100107    -470.07513949
centre ...       0.36200214    -470.16502413
right  ...       0.75911068    -470.24708821
new    ...       0.76657724    -470.24713598

__s__    ...       0.00746657

 ALPHA AFTER:   0.76657724343619549     
  Cycle:     54 Energy:      -470.247136  Gnorm:      0.697198  CPU:    0.268
 Line minimisation2
 ALPHA BEFORE:   0.76657724343619549     
  ** Opt : line minimisation
left   ...       0.00000000    -470.24713598
centre ...       0.19164431    -470.42517440
right  ...       0.38328862    -470.53027054

left   ...       0.00000000    -470.24713598
centre ...       0.19164431    -470.42517440
right  ...       0.38328862    -470.53027054
new    ...       0.56358991    -470.56454728

__s__    ...       0.18030128

 ALPHA AFTER:   0.56358990523842689     
  Cycle:     55 Energy:      -470.564547  Gnorm:      0.595446  CPU:    0.271
 Line minimisation2
 ALPHA BEFORE:   0.56358990523842689     
  ** Opt : line minimisation
left   ...       0.00000000    -470.56454728
centre ...       0.14089748    -470.66821808
right  ...       0.28179495    -470.74978604

left   ...       0.00000000    -470.56454728
centre ...       0.14089748    -470.66821808
right  ...       0.28179495    -470.74978604
new    ...       0.73131218    -470.85086611

__s__    ...       0.44951723

left   ...       0.14089748    -470.66821808
centre ...       0.28179495    -470.74978604
right  ...       0.73131218    -470.85086611
new    ...       0.69404328    -470.85232216

__s__    ...      -0.03726891

 ALPHA AFTER:   0.69404327733735593     
  Cycle:     56 Energy:      -470.852322  Gnorm:      0.497665  CPU:    0.276
 Line minimisation2
 ALPHA BEFORE:   0.69404327733735593     
  ** Opt : line minimisation
left   ...       0.00000000    -470.85232216
centre ...       0.17351082    -470.92849892
right  ...       0.34702164    -470.96316320

left   ...       0.00000000    -470.85232216
centre ...       0.17351082    -470.92849892
right  ...       0.34702164    -470.96316320
new    ...       0.40515340    -470.96546108

__s__    ...       0.05813176

 ALPHA AFTER:   0.40515339868816619     
  Cycle:     57 Energy:      -470.965461  Gnorm:      0.377421  CPU:    0.279
 Line minimisation2
 ALPHA BEFORE:   0.40515339868816619     
  ** Opt : line minimisation
left   ...       0.00000000    -470.96546108
centre ...       0.10128835    -470.99452932
right  ...       0.20257670    -471.01898567

left   ...       0.00000000    -470.96546108
centre ...       0.10128835    -470.99452932
right  ...       0.20257670    -471.01898567
new    ...       0.68905389    -471.07296621

__s__    ...       0.48647719

left   ...       0.10128835    -470.99452932
centre ...       0.20257670    -471.01898567
right  ...       0.68905389    -471.07296621
new    ...       0.69571717    -471.07314179

__s__    ...       0.00666328

 ALPHA AFTER:   0.69571716794741290     
  Cycle:     58 Energy:      -471.073142  Gnorm:      0.392701  CPU:    0.283
 Line minimisation2
 ALPHA BEFORE:   0.69571716794741290     
  ** Opt : line minimisation
left   ...       0.00000000    -471.07314179
centre ...       0.17392929    -471.12235486
right  ...       0.34785858    -471.14965053

left   ...       0.00000000    -471.07314179
centre ...       0.17392929    -471.12235486
right  ...       0.34785858    -471.14965053
new    ...       0.47750344    -471.15581896

__s__    ...       0.12964486

 ALPHA AFTER:   0.47750344464389366     
  Cycle:     59 Energy:      -471.155819  Gnorm:      0.345911  CPU:    0.287
 Line minimisation2
 ALPHA BEFORE:   0.47750344464389366     
  ** Opt : line minimisation
left   ...       0.00000000    -471.15581896
centre ...       0.11937586    -471.18190275
right  ...       0.23875172    -471.19583685

left   ...       0.00000000    -471.15581896
centre ...       0.11937586    -471.18190275
right  ...       0.23875172    -471.19583685
new    ...       0.31597238    -471.19829703

__s__    ...       0.07722066

 ALPHA AFTER:   0.31597238100511382     
  Cycle:     60 Energy:      -471.198297  Gnorm:      0.293993  CPU:    0.290
 Line minimisation2
 ALPHA BEFORE:   0.31597238100511382     
  ** Opt : line minimisation
left   ...       0.00000000    -471.19829703
centre ...       0.07899310    -471.21310726
right  ...       0.15798619    -471.22617799

left   ...       0.00000000    -471.19829703
centre ...       0.07899310    -471.21310726
right  ...       0.15798619    -471.22617799
new    ...       0.71204965    -471.27389012

__s__    ...       0.55406346

left   ...       0.07899310    -471.21310726
centre ...       0.15798619    -471.22617799
right  ...       0.71204965    -471.27389012
new    ...       0.77850887    -471.27438095

__s__    ...       0.06645922

 ALPHA AFTER:   0.77850886758387516     
  Cycle:     61 Energy:      -471.274381  Gnorm:      0.280983  CPU:    0.294
 Line minimisation2
 ALPHA BEFORE:   0.77850886758387516     
  ** Opt : line minimisation
left   ...       0.00000000    -471.27438095
centre ...       0.19462722    -471.30611299
right  ...       0.38925443    -471.33211005

left   ...       0.00000000    -471.27438095
centre ...       0.19462722    -471.30611299
right  ...       0.38925443    -471.33211005
new    ...       1.17419877    -471.37844975

__s__    ...       0.78494434

left   ...       0.19462722    -471.30611299
centre ...       0.38925443    -471.33211005
right  ...       1.17419877    -471.37844975
new    ...       1.16964747    -471.37845266

__s__    ...      -0.00455130

 ALPHA AFTER:    1.1696474697575765     
  Cycle:     62 Energy:      -471.378453  Gnorm:      0.325461  CPU:    0.299
 Perform trimming
 Line minimisation2
 ALPHA BEFORE:    1.1696474697575765     
  ** Opt : line minimisation
left   ...       0.00000000    -471.37845266
centre ...       0.29241187    -471.43395524
right  ...       0.58482373    -471.46168028

left   ...       0.00000000    -471.37845266
centre ...       0.29241187    -471.43395524
right  ...       0.58482373    -471.46168028
new    ...       0.73047689    -471.46520573

__s__    ...       0.14565316

 ALPHA AFTER:   0.73047689243706448     
  Cycle:     63 Energy:      -471.465206  Gnorm:      0.328363  CPU:    0.302
 Line minimisation2
 ALPHA BEFORE:   0.73047689243706448     
  ** Opt : line minimisation
left   ...       0.00000000    -471.46520573
centre ...       0.18261922    -471.50116263
right  ...       0.36523845    -471.51841915

left   ...       0.00000000    -471.46520573
centre ...       0.18261922    -471.50116263
right  ...       0.36523845    -471.51841915
new    ...       0.44244794    -471.52032500

__s__    ...       0.07720950

 ALPHA AFTER:   0.44244794205491622     
  Cycle:     64 Energy:      -471.520325  Gnorm:      0.249686  CPU:    0.307
 Line minimisation2
 ALPHA BEFORE:   0.44244794205491622     
  ** Opt : line minimisation
left   ...       0.00000000    -471.52032500
centre ...       0.11061199    -471.53468739
right  ...       0.22122397    -471.54622980

left   ...       0.00000000    -471.52032500
centre ...       0.11061199    -471.53468739
right  ...       0.22122397    -471.54622980
new    ...       0.61866401    -471.56216438

__s__    ...       0.39744003

left   ...       0.11061199    -471.53468739
centre ...       0.22122397    -471.54622980
right  ...       0.61866401    -471.56216438
new    ...       0.57844195    -471.56234432

__s__    ...      -0.04022206

 ALPHA AFTER:   0.57844194502930035     
  Cycle:     65 Energy:      -471.562344  Gnorm:      0.198887  CPU:    0.312
 Line minimisation2
 ALPHA BEFORE:   0.57844194502930035     
  ** Opt : line minimisation
left   ...       0.00000000    -471.56234432
centre ...       0.14461049    -471.57391831
right  ...       0.28922097    -471.58254574

left   ...       0.00000000    -471.56234432
centre ...       0.14461049    -471.57391831
right  ...       0.28922097    -471.58254574
new    ...       0.64032981    -471.59094146

__s__    ...       0.35110883

left   ...       0.14461049    -471.57391831
centre ...       0.28922097    -471.58254574
right  ...       0.64032981    -471.59094146
new    ...       0.63057119    -471.59093947

__s__    ...      -0.00975862

 ALPHA AFTER:   0.64032980691091412     
  Cycle:     66 Energy:      -471.590941  Gnorm:      0.217886  CPU:    0.318
 Line minimisation2
 ALPHA BEFORE:   0.64032980691091412     
  ** Opt : line minimisation
left   ...       0.00000000    -471.59094146
centre ...       0.16008245    -471.60553726
right  ...       0.32016490    -471.61455705

left   ...       0.00000000    -471.59094146
centre ...       0.16008245    -471.60553726
right  ...       0.32016490    -471.61455705
new    ...       0.49907522    -471.61756889

__s__    ...       0.17891032

 ALPHA AFTER:   0.49907521849893349     
  Cycle:     67 Energy:      -471.617569  Gnorm:      0.204664  CPU:    0.322
 Line minimisation2
 ALPHA BEFORE:   0.49907521849893349     
  ** Opt : line minimisation
left   ...       0.00000000    -471.61756889
centre ...       0.12476880    -471.62841162
right  ...       0.24953761    -471.63801785

left   ...       0.00000000    -471.61756889
centre ...       0.12476880    -471.62841162
right  ...       0.24953761    -471.63801785
new    ...       1.15647697    -471.66890969

__s__    ...       0.90693936

left   ...       0.12476880    -471.62841162
centre ...       0.24953761    -471.63801785
right  ...       1.15647697    -471.66890969
new    ...       1.11229142    -471.66905140

__s__    ...      -0.04418555

 ALPHA AFTER:    1.1122914222763380     
  Cycle:     68 Energy:      -471.669051  Gnorm:      0.224213  CPU:    0.328
 Line minimisation2
 ALPHA BEFORE:    1.1122914222763380     
  ** Opt : line minimisation
left   ...       0.00000000    -471.66905140
centre ...       0.27807286    -471.69565726
right  ...       0.55614571    -471.71183833

left   ...       0.00000000    -471.66905140
centre ...       0.27807286    -471.69565726
right  ...       0.55614571    -471.71183833
new    ...       0.84872684    -471.71713653

__s__    ...       0.29258113

 ALPHA AFTER:   0.84872683763494416     
  Cycle:     69 Energy:      -471.717137  Gnorm:      0.256244  CPU:    0.332
 Line minimisation2
 ALPHA BEFORE:   0.84872683763494416     
  ** Opt : line minimisation
left   ...       0.00000000    -471.71713653
centre ...       0.21218171    -471.73736690
right  ...       0.42436342    -471.73434423

left   ...       0.00000000    -471.71713653
centre ...       0.21218171    -471.73736690
right  ...       0.42436342    -471.73434423
new    ...       0.29069102    -471.73898202

__s__    ...      -0.13367240

left   ...       0.21218171    -471.73736690
centre ...       0.29069102    -471.73898202
right  ...       0.42436342    -471.73434423
new    ...       0.29092680    -471.73898213

__s__    ...       0.00023578

 ALPHA AFTER:   0.29092680064200471     
  Cycle:     70 Energy:      -471.738982  Gnorm:      0.187899  CPU:    0.338
 Line minimisation2
 ALPHA BEFORE:   0.29092680064200471     
  ** Opt : line minimisation
left   ...       0.00000000    -471.73898213
centre ...       0.07273170    -471.74453769
right  ...       0.14546340    -471.74932522

left   ...       0.00000000    -471.73898213
centre ...       0.07273170    -471.74453769
right  ...       0.14546340    -471.74932522
new    ...       0.56247345    -471.76636853

__s__    ...       0.41701005

left   ...       0.07273170    -471.74453769
centre ...       0.14546340    -471.74932522
right  ...       0.56247345    -471.76636853
new    ...       0.75501978    -471.76767302

__s__    ...       0.19254633

 ALPHA AFTER:   0.75501978333516162     
  Cycle:     71 Energy:      -471.767673  Gnorm:      0.203591  CPU:    0.344
 Line minimisation2
 ALPHA BEFORE:   0.75501978333516162     
  ** Opt : line minimisation
left   ...       0.00000000    -471.76767302
centre ...       0.18875495    -471.78248549
right  ...       0.37750989    -471.79356110

left   ...       0.00000000    -471.76767302
centre ...       0.18875495    -471.78248549
right  ...       0.37750989    -471.79356110
new    ...       0.84258002    -471.80376426

__s__    ...       0.46507013

left   ...       0.18875495    -471.78248549
centre ...       0.37750989    -471.79356110
right  ...       0.84258002    -471.80376426
new    ...       0.80526728    -471.80389361

__s__    ...      -0.03731274

 ALPHA AFTER:   0.80526727785292573     
  Cycle:     72 Energy:      -471.803894  Gnorm:      0.183152  CPU:    0.349
 Line minimisation2
 ALPHA BEFORE:   0.80526727785292573     
  ** Opt : line minimisation
left   ...       0.00000000    -471.80389361
centre ...       0.20131682    -471.81790005
right  ...       0.40263364    -471.82884072

left   ...       0.00000000    -471.80389361
centre ...       0.20131682    -471.81790005
right  ...       0.40263364    -471.82884072
new    ...       1.02040518    -471.84444837

__s__    ...       0.61777154

left   ...       0.20131682    -471.81790005
centre ...       0.40263364    -471.82884072
right  ...       1.02040518    -471.84444837
new    ...       1.06731407    -471.84448728

__s__    ...       0.04690889

 ALPHA AFTER:    1.0673140668476395     
  Cycle:     73 Energy:      -471.844487  Gnorm:      0.279705  CPU:    0.355
 Perform trimming
 Line minimisation2
 ALPHA BEFORE:    1.0673140668476395     
  ** Opt : line minimisation
left   ...       0.00000000    -471.84448728
centre ...       0.26682852    -471.86874633
right  ...       0.53365703    -471.88569276

left   ...       0.00000000    -471.84448728
centre ...       0.26682852    -471.86874633
right  ...       0.53365703    -471.88569276
new    ...       1.01859745    -471.89874774

__s__    ...       0.48494042

left   ...       0.26682852    -471.86874633
centre ...       0.53365703    -471.88569276
right  ...       1.01859745    -471.89874774
new    ...       1.05268267    -471.89875521

__s__    ...       0.03408521

 ALPHA AFTER:    1.0526826652454606     
  Cycle:     74 Energy:      -471.898755  Gnorm:      0.309580  CPU:    0.361
 Line minimisation2
 ALPHA BEFORE:    1.0526826652454606     
  ** Opt : line minimisation
left   ...       0.00000000    -471.89875521
centre ...       0.26317067    -471.94722342
right  ...       0.52634133    -471.97856493

left   ...       0.00000000    -471.89875521
centre ...       0.26317067    -471.94722342
right  ...       0.52634133    -471.97856493
new    ...       0.87635329    -471.99360347

__s__    ...       0.35001196

 ALPHA AFTER:   0.87635329447429844     
  Cycle:     75 Energy:      -471.993603  Gnorm:      0.418474  CPU:    0.365
 Perform trimming
 Line minimisation2
 ALPHA BEFORE:   0.87635329447429844     
  ** Opt : line minimisation
left   ...       0.00000000    -471.99360347
centre ...       0.21908832    -472.04521722
right  ...       0.43817665    -472.08629343

left   ...       0.00000000    -471.99360347
centre ...       0.21908832    -472.04521722
right  ...       0.43817665    -472.08629343
new    ...       1.18265811    -472.11179229

__s__    ...       0.74448146

left   ...       0.21908832    -472.04521722
centre ...       0.43817665    -472.08629343
right  ...       1.18265811    -472.11179229
new    ...       0.91810300    -472.12888580

__s__    ...      -0.26455511

 ALPHA AFTER:   0.91810299516229465     
  Cycle:     76 Energy:      -472.128886  Gnorm:      0.482919  CPU:    0.371
 Line minimisation2
 ALPHA BEFORE:   0.91810299516229465     
  ** Opt : line minimisation
left   ...       0.00000000    -472.12888580
centre ...       0.22952575    -472.22174532
right  ...       0.45905150    -472.25140515

left   ...       0.00000000    -472.12888580
centre ...       0.22952575    -472.22174532
right  ...       0.45905150    -472.25140515
new    ...       0.45200584    -472.25153991

__s__    ...      -0.00704566

 ALPHA AFTER:   0.45200584214885814     
  Cycle:     77 Energy:      -472.251540  Gnorm:      0.305958  CPU:    0.375
 Line minimisation2
 ALPHA BEFORE:   0.45200584214885814     
  ** Opt : line minimisation
left   ...       0.00000000    -472.25153991
centre ...       0.11300146    -472.27168278
right  ...       0.22600292    -472.28558667

left   ...       0.00000000    -472.25153991
centre ...       0.11300146    -472.27168278
right  ...       0.22600292    -472.28558667
new    ...       0.42133193    -472.29458758

__s__    ...       0.19532901

left   ...       0.11300146    -472.27168278
centre ...       0.22600292    -472.28558667
right  ...       0.42133193    -472.29458758
new    ...       0.41597457    -472.29459678

__s__    ...      -0.00535737

 ALPHA AFTER:   0.41597456581325615     
  Cycle:     78 Energy:      -472.294597  Gnorm:      0.243613  CPU:    0.381
 Line minimisation2
 ALPHA BEFORE:   0.41597456581325615     
  ** Opt : line minimisation
left   ...       0.00000000    -472.29459678
centre ...       0.10399364    -472.30758804
right  ...       0.20798728    -472.31869049

left   ...       0.00000000    -472.29459678
centre ...       0.10399364    -472.30758804
right  ...       0.20798728    -472.31869049
new    ...       0.76726634    -472.34552267

__s__    ...       0.55927905

left   ...       0.10399364    -472.30758804
centre ...       0.20798728    -472.31869049
right  ...       0.76726634    -472.34552267
new    ...       0.75828869    -472.34554428

__s__    ...      -0.00897764

 ALPHA AFTER:   0.75828869255296072     
  Cycle:     79 Energy:      -472.345544  Gnorm:      0.226627  CPU:    0.387
 Line minimisation2
 ALPHA BEFORE:   0.75828869255296072     
  ** Opt : line minimisation
left   ...       0.00000000    -472.34554428
centre ...       0.18957217    -472.36156698
right  ...       0.37914435    -472.36519273

left   ...       0.00000000    -472.34554428
centre ...       0.18957217    -472.36156698
right  ...       0.37914435    -472.36519273
new    ...       0.33980259    -472.36543098

__s__    ...      -0.03934176

 ALPHA AFTER:   0.33980258984496869     
  Cycle:     80 Energy:      -472.365431  Gnorm:      0.174861  CPU:    0.391
 Line minimisation2
 ALPHA BEFORE:   0.33980258984496869     
  ** Opt : line minimisation
left   ...       0.00000000    -472.36543098
centre ...       0.08495065    -472.37097381
right  ...       0.16990129    -472.37571667

left   ...       0.00000000    -472.36543098
centre ...       0.08495065    -472.37097381
right  ...       0.16990129    -472.37571667
new    ...       0.63108361    -472.38759449

__s__    ...       0.46118232

left   ...       0.08495065    -472.37097381
centre ...       0.16990129    -472.37571667
right  ...       0.63108361    -472.38759449
new    ...       0.63433155    -472.38759588

__s__    ...       0.00324794

 ALPHA AFTER:   0.63433154723385843     
  Cycle:     81 Energy:      -472.387596  Gnorm:      0.167532  CPU:    0.397
 Line minimisation2
 ALPHA BEFORE:   0.63433154723385843     
  ** Opt : line minimisation
left   ...       0.00000000    -472.38759588
centre ...       0.15858289    -472.39681001
right  ...       0.31716577    -472.40442239

left   ...       0.00000000    -472.38759588
centre ...       0.15858289    -472.39681001
right  ...       0.31716577    -472.40442239
new    ...       0.99155143    -472.41950745

__s__    ...       0.67438565

left   ...       0.15858289    -472.39681001
centre ...       0.31716577    -472.40442239
right  ...       0.99155143    -472.41950745
new    ...       1.01778875    -472.41950449

__s__    ...       0.02623733

 ALPHA AFTER:   0.99155142662472173     
  Cycle:     82 Energy:      -472.419507  Gnorm:      0.183569  CPU:    0.403
 Line minimisation2
 ALPHA BEFORE:   0.99155142662472173     
  ** Opt : line minimisation
left   ...       0.00000000    -472.41950745
centre ...       0.24788786    -472.43412312
right  ...       0.49577571    -472.43960561

left   ...       0.00000000    -472.41950745
centre ...       0.24788786    -472.43412312
right  ...       0.49577571    -472.43960561
new    ...       0.52063476    -472.43961603

__s__    ...       0.02485904

 ALPHA AFTER:   0.52063475512860491     
  Cycle:     83 Energy:      -472.439616  Gnorm:      0.144535  CPU:    0.408
 Line minimisation2
 ALPHA BEFORE:   0.52063475512860491     
  ** Opt : line minimisation
left   ...       0.00000000    -472.43961603
centre ...       0.13015869    -472.44481285
right  ...       0.26031738    -472.44829047

left   ...       0.00000000    -472.43961603
centre ...       0.13015869    -472.44481285
right  ...       0.26031738    -472.44829047
new    ...       0.45852444    -472.45027965

__s__    ...       0.19820706

 ALPHA AFTER:   0.45852443554052230     
  Cycle:     84 Energy:      -472.450280  Gnorm:      0.096145  CPU:    0.412
  ** Hessian calculated **
 Line minimisation2
 ALPHA BEFORE:    1.0000000000000000     
  ** Opt : line minimisation
left   ...       0.00000000    -472.45027965
centre ...       0.25000000    -472.45788970
right  ...       0.50000000    -472.46512830

left   ...       0.00000000    -472.45027965
centre ...       0.25000000    -472.45788970
right  ...       0.50000000    -472.46512830
new    ...       1.50000000    -472.48991418

__s__    ...       1.00000000

left   ...       0.25000000    -472.45788970
centre ...       0.50000000    -472.46512830
right  ...       1.50000000    -472.48991418
new    ...       2.50000000    -472.50746890

__s__    ...       1.00000000

left   ...       0.50000000    -472.46512830
centre ...       1.50000000    -472.48991418
right  ...       2.50000000    -472.50746890
new    ...       3.50000000    -472.52095688

__s__    ...       1.00000000

 ALPHA AFTER:    3.5000000000000000     
  Cycle:     85 Energy:      -472.520957  Gnorm:      0.036027  CPU:    0.420
 Line minimisation2
 ALPHA BEFORE:    2.3333333333333335     
  ** Opt : line minimisation
left   ...       0.00000000    -472.52095688
centre ...       0.58333333    -472.52749965
right  ...       1.16666667    -472.52933218

left   ...       0.00000000    -472.52095688
centre ...       0.58333333    -472.52749965
right  ...       1.16666667    -472.52933218
new    ...       1.10194861    -472.52942733

__s__    ...      -0.06471806

 ALPHA AFTER:    1.1019486065132271     
  Cycle:     86 Energy:      -472.529427  Gnorm:      0.017156  CPU:    0.423
 Line minimisation2
 ALPHA BEFORE:    10.102635842287340     
  ** Opt : line minimisation
left   ...       0.00000000    -472.52942733
centre ...       1.00000000    -472.53007372
right  ...       2.00000000    -472.52987281

left   ...       0.00000000    -472.52942733
centre ...       1.00000000    -472.53007372
right  ...       2.00000000    -472.52987281
new    ...       1.26288213    -472.53010304

__s__    ...      -0.73711787

 ALPHA AFTER:    1.2628821269309880     
  Cycle:     87 Energy:      -472.530103  Gnorm:      0.007037  CPU:    0.427
 Line minimisation2
 ALPHA BEFORE:    2.3249445880407933     
  ** Opt : line minimisation
left   ...       0.00000000    -472.53010304
centre ...       0.58123615    -472.53015498
right  ...       1.16247229    -472.53016656

left   ...       0.00000000    -472.53010304
centre ...       0.58123615    -472.53015498
right  ...       1.16247229    -472.53016656
new    ...       1.03843783    -472.53016748

__s__    ...      -0.12403446

 ALPHA AFTER:    1.0384378305771429     
  Cycle:     88 Energy:      -472.530167  Gnorm:      0.001269  CPU:    0.430
 Line minimisation2
 ALPHA BEFORE:    4.6246863446522877     
  ** Opt : line minimisation
left   ...       0.00000000    -472.53016748
centre ...       1.00000000    -472.53017057
right  ...       2.00000000    -472.53016640

left   ...       0.00000000    -472.53016748
centre ...       1.00000000    -472.53017057
right  ...       2.00000000    -472.53016640
new    ...       1.00000000    -472.53017057

__s__    ...      -1.00000000

 ALPHA AFTER:    1.0000000000000000     


  **** Optimisation achieved ****


  Final energy =    -472.53017057 eV
  Final Gnorm  =       0.00032430

  Components of energy : 

--------------------------------------------------------------------------------
  Interatomic potentials     =          69.66149138 eV    
  Monopole - monopole (real) =        -259.20448374 eV    
  Monopole - monopole (recip)=        -282.98717821 eV    
  Monopole - monopole (total)=        -542.19166195 eV    
--------------------------------------------------------------------------------
  Total lattice energy       =        -472.53017057 eV    
--------------------------------------------------------------------------------
  Total lattice energy       =          -45591.9382 kJ/(mole unit cells)
--------------------------------------------------------------------------------

  Final fractional coordinates of atoms :

--------------------------------------------------------------------------------
   No.  Atomic        x           y          z          Radius
        Label       (Frac)      (Frac)     (Frac)       (Angs) 
--------------------------------------------------------------------------------
     1  O     c     0.000000    0.500000    0.250000    0.000000
     2  O     c     0.401112    0.555761    0.229246    0.000000
     3  O     c     0.220972    0.592960    0.566921    0.000000
     4  O     c     0.339960    0.079375    0.509565    0.000000
     5  O     c     0.816670    0.498789    0.722355    0.000000
     6  O     c     0.118996    0.986410    0.192645    0.000000
     7  O     c     0.938850    0.023607    0.530317    0.000000
     8  O     c     0.523299    0.080582    0.037209    0.000000
     9  O     c     0.169984    0.289682    0.879782    0.000000
    10  Sr    c     0.669984    0.289685    0.379781    0.000000
    11  Sr    c     0.595429    0.909952    0.710486    0.000000
    12  Sr    c     0.744540    0.669418    0.049077    0.000000
    13  Ti    c     0.096589    0.324827    0.655337    0.000000
    14  Ti    c     0.243378    0.254540    0.104229    0.000000
    15  Ti    c     0.169983    0.789685    0.379783    0.000000
--------------------------------------------------------------------------------

  Final Cartesian lattice vectors (Angstroms) :

        5.911673    0.063512    0.166119
        0.063512    5.207176   -0.518001
        0.332239   -1.036003    7.549471


  Final cell parameters and derivatives :

--------------------------------------------------------------------------------
       a            5.914347 Angstrom     dE/de1(xx)     0.001967 eV/strain
       b            5.233263 Angstrom     dE/de2(yy)     0.002870 eV/strain
       c            7.627463 Angstrom     dE/de3(zz)     0.003349 eV/strain
       alpha      103.449602 Degrees      dE/de4(yz)     0.001915 eV/strain
       beta        85.992891 Degrees      dE/de5(xz)     0.002269 eV/strain
       gamma       88.851969 Degrees      dE/de6(xy)    -0.004222 eV/strain
--------------------------------------------------------------------------------

  Primitive cell volume =           228.884082 Angs**3

  Density of cell =      3.993905 g/cm**3

  Non-primitive cell volume =           228.884082 Angs**3


  Final internal derivatives :

--------------------------------------------------------------------------------
   No.  Atomic          a             b             c           Radius
        Label          (eV)          (eV)          (eV)        (eV/Angs)
--------------------------------------------------------------------------------
      1 O     c       0.000000      0.000000      0.000000      0.000000
      2 O     c       0.000172     -0.001441     -0.003603      0.000000
      3 O     c      -0.000698     -0.003180      0.004743      0.000000
      4 O     c      -0.001190     -0.002085     -0.002064      0.000000
      5 O     c      -0.001736      0.002380     -0.000405      0.000000
      6 O     c       0.000891      0.001004     -0.002714      0.000000
      7 O     c      -0.001409      0.001236      0.000481      0.000000
      8 O     c       0.002193     -0.001571     -0.000336      0.000000
      9 O     c       0.000728     -0.000187      0.000073      0.000000
     10 Sr    c       0.000422      0.000102     -0.000149      0.000000
     11 Sr    c       0.001259      0.000757     -0.001637      0.000000
     12 Sr    c      -0.000264     -0.000713      0.000939      0.000000
     13 Ti    c       0.001742      0.000626     -0.005168      0.000000
     14 Ti    c      -0.001616     -0.002567      0.007251      0.000000
     15 Ti    c       0.001379     -0.000193      0.002017      0.000000
--------------------------------------------------------------------------------
  Maximum abs         0.002193      0.003180      0.007251      0.000000
--------------------------------------------------------------------------------


  Time to end of optimisation =       0.4338 seconds

 Exiting ------OPTIONS------

  Peak dynamic memory used =       0.60 MB 


  Timing analysis for GULP :

--------------------------------------------------------------------------------
  Task / Subroutine                                          Time (Seconds)
--------------------------------------------------------------------------------
  Calculation of reciprocal space energy and derivatives          0.0501
  Calculation of real space energy and derivatives                0.3721
  Global summation overhead                                       0.0003
--------------------------------------------------------------------------------
  Total CPU time                                                  0.4338
--------------------------------------------------------------------------------


  Job Finished at 12:06.57  4th February   2020                               

