********************************************************************************
*                       GENERAL UTILITY LATTICE PROGRAM                        *
*                                 Julian Gale                                  *
*                       Curtin Institute for Computation                       *
*                           Department of Chemistry                            *
*                    Curtin University, Western Australia                      *
********************************************************************************
* Version = 5.1.1 * Last modified =  25th August 2019                          *
********************************************************************************
*  optimise     - perform optimisation run                                     *
*  conp         - constant pressure calculation                                *
*  nosymmetry   - turn off symmetry after initial structure generation         *
*  full         - generate full unit cell when symmetry is removed             *
*  conjugate    - use conjugate gradients minimiser                            *
********************************************************************************
* ASE calculation                                                              *
********************************************************************************


  Job Started  at 13:26.49 21st February   2020                               

  Number of CPUs =     1


  Total number of configurations input =      1

********************************************************************************
*  Input for Configuration =   1                                               *
********************************************************************************

  Formula = O9Sr3Ti3                                                    

  Number of irreducible atoms/shells =      15


  Total number atoms/shells =      15

  Dimensionality = 3               :  Bulk   



  Cartesian lattice vectors (Angstroms) :

        4.000000    0.000000    0.000000
        0.000000    4.000000    0.000000
        0.000000    0.000000    8.000000

  Cell parameters (Angstroms/Degrees):

  a =       4.0000    alpha =  90.0000
  b =       4.0000    beta  =  90.0000
  c =       8.0000    gamma =  90.0000

  Initial cell volume =         128.000000 Angs**3

  Temperature of configuration =  0.000     K 

  Pressure of configuration =         0.000 GPa 

  Fractional coordinates of asymmetric unit :

--------------------------------------------------------------------------------
   No.  Atomic       x           y          z         Charge      Occupancy
        Label      (Frac)      (Frac)     (Frac)        (e)         (Frac)  
--------------------------------------------------------------------------------
      1 O     c    0.500000    0.500000    0.750000    -2.00000    1.000000    
      2 O     c    0.500000 *  0.000000 *  0.750000 *  -2.00000    1.000000    
      3 O     c    0.000000 *  0.500000 *  0.750000 *  -2.00000    1.000000    
      4 O     c    0.000000 *  0.500000 *  0.000000 *  -2.00000    1.000000    
      5 O     c    0.000000 *  0.000000 *  0.250000 *  -2.00000    1.000000    
      6 O     c    0.500000 *  0.000000 *  0.250000 *  -2.00000    1.000000    
      7 O     c    0.500000 *  0.500000 *  0.250000 *  -2.00000    1.000000    
      8 O     c    0.500000 *  0.500000 *  0.500000 *  -2.00000    1.000000    
      9 O     c    0.500000 *  0.000000 *  0.500000 *  -2.00000    1.000000    
     10 Sr    c    0.250000 *  0.750000 *  0.375000 *   2.00000    1.000000    
     11 Sr    c    0.250000 *  0.750000 *  0.875000 *   2.00000    1.000000    
     12 Sr    c    0.250000 *  0.250000 *  0.625000 *   2.00000    1.000000    
     13 Ti    c    0.250000 *  0.750000 *  0.625000 *   4.00000    1.000000    
     14 Ti    c    0.750000 *  0.250000 *  0.875000 *   4.00000    1.000000    
     15 Ti    c    0.750000 *  0.750000 *  0.375000 *   4.00000    1.000000    
--------------------------------------------------------------------------------



********************************************************************************
*  General input information                                                   *
********************************************************************************

  Species output for all configurations : 

--------------------------------------------------------------------------------
  Species    Type    Atomic    Atomic    Charge       Radii (Angs)     Library
                     Number     Mass       (e)     Cova   Ionic  VDW   Symbol
--------------------------------------------------------------------------------
    O        Core        8      16.00  -2.000000   0.730  0.000  1.360          
    Sr       Core       38      87.62   2.000000   1.120  0.000  1.670          
    Ti       Core       22      47.88   4.000000   1.470  0.000  2.190          
--------------------------------------------------------------------------------


  Lattice summation method               =    Ewald          (3-D)
                                         =    Parry          (2-D)
                                         =    Saunders et al (1-D)
  Accuracy factor for lattice sums       =   12.000


  Time limit = Infinity

  Maximum range for interatomic potentials =    100000.000000 Angstroms

  General interatomic potentials :

--------------------------------------------------------------------------------
Atom  Types   Potential      Parameter       Value         Units   Cutoffs(Ang)
  1     2                                                            Min /  Max 
--------------------------------------------------------------------------------
O    c Sr   c Buckingham    Buckingham A     1952.3900    eV        0.000 10.000
                            Buckingham rho  0.33685000    Ang       
                            Buckingham C     19.220000    eV*Ang^6  
--------------------------------------------------------------------------------
O    c Ti   c Buckingham    Buckingham A     4590.7279    eV        0.000 10.000
                            Buckingham rho  0.26100000    Ang       
                            Buckingham C     0.0000000    eV*Ang^6  
--------------------------------------------------------------------------------
O    c O    c Buckingham    Buckingham A     1388.7700    eV        0.000 10.000
                            Buckingham rho  0.36262000    Ang       
                            Buckingham C     175.00000    eV*Ang^6  
--------------------------------------------------------------------------------
 Calling ------OPTIONS------

********************************************************************************
*  Output for configuration   1                                                *
********************************************************************************


  Components of energy : 

--------------------------------------------------------------------------------
  Interatomic potentials     =         283.74069147 eV    
  Monopole - monopole (real) =        -200.67401279 eV    
  Monopole - monopole (recip)=        -313.23454466 eV    
  Monopole - monopole (total)=        -513.90855745 eV    
--------------------------------------------------------------------------------
  Total lattice energy       =        -230.16786598 eV    
--------------------------------------------------------------------------------
  Total lattice energy       =          -22207.6806 kJ/(mole unit cells)
--------------------------------------------------------------------------------


  Number of variables =       48

  Maximum number of calculations  =          1000
  Maximum Hessian update interval =            10
  Maximum step size               =   0.001000000
  Maximum parameter tolerance     =   0.000010000
  Maximum function  tolerance     =   0.000010000
  Maximum gradient  tolerance     =   0.001000000
  Maximum gradient  component     =   0.010000000

  Cell parameters to be optimised using strains

  Conjugate gradient optimiser to be used

  Lower half triangular hessian to be used

  Minimiser to switch to BFGS with exact hessian
  When gradient norm is less than     0.500000

  Switch max step size to       0.10000000 when gnorm is less than    10.000000

  Start of bulk optimisation :

  Cycle:      0 Energy:      -230.167866  Gnorm:     22.287918  CPU:    0.013
 Perform trimming
 ALPHA BEFORE:    1.0000000000000000     
 XC BEFORE:   0.50000000000000000     
  ** Opt : line minimisation
left   ...       0.00000000    -230.16786598
centre ...       0.00100000    -230.47284258
right  ...       0.00200000    -230.79029411

left   ...       0.00000000    -230.16786598
centre ...       0.00100000    -230.47284258
right  ...       0.00200000    -230.79029411
new    ...       0.00300000    -231.10709624

__s__    ...       0.00100000

left   ...       0.00100000    -230.47284258
centre ...       0.00200000    -230.79029411
right  ...       0.00300000    -231.10709624
new    ...       0.00400000    -231.42324963

__s__    ...       0.00100000

left   ...       0.00200000    -230.79029411
centre ...       0.00300000    -231.10709624
right  ...       0.00400000    -231.42324963
new    ...       0.00500000    -231.73875495

__s__    ...       0.00100000

left   ...       0.00300000    -231.10709624
centre ...       0.00400000    -231.42324963
right  ...       0.00500000    -231.73875495
new    ...       0.00600000    -232.05361285

__s__    ...       0.00100000

 ALPHA AFTER:    6.0000000000000010E-003
 XC AFTER:   0.50013541085833690     
 SANITY CHECK:    5.9999999999963893E-003
 DIRECTION dim            1  value    2.2568476389497587E-002
 DIRECTION dim            2  value   -1.3055069648517314E-003
 DIRECTION dim            3  value    2.2448690421472572E-002
 DIRECTION dim            4  value   -2.2568476389497584E-002
 DIRECTION dim            5  value    1.3055069648517275E-003
 DIRECTION dim            6  value   -4.4813349452158369E-002
 DIRECTION dim            7  value   -1.3416645871908703E-002
 DIRECTION dim            8  value   -1.2332566993782179E-002
 DIRECTION dim            9  value    3.2916138704582364E-003
 DIRECTION dim           10  value   -1.3416645871908706E-002
 DIRECTION dim           11  value    7.8463235527371795E-003
 DIRECTION dim           12  value    4.5190925505778192E-003
 DIRECTION dim           13  value    1.3416645871908694E-002
 DIRECTION dim           14  value    7.8463235527371691E-003
 DIRECTION dim           15  value   -3.5530323597243389E-002
 DIRECTION dim           16  value    1.3416645871908706E-002
 DIRECTION dim           17  value   -7.8463235527371812E-003
 DIRECTION dim           18  value   -2.9111927386237666E-002
 DIRECTION dim           19  value    2.2568476389497581E-002
 DIRECTION dim           20  value    5.7917504058967277E-003
 DIRECTION dim           21  value    3.0584246820116460E-002
 DIRECTION dim           22  value    2.2568476389497598E-002
 DIRECTION dim           23  value   -5.7917504058967355E-003
 DIRECTION dim           24  value    4.3421039242128132E-002
 DIRECTION dim           25  value   -3.3039655425651536E-002
 DIRECTION dim           26  value   -1.1776686001005657E-002
 DIRECTION dim           27  value   -6.4014734102805754E-002
 DIRECTION dim           28  value    1.1452012886827298E-003
 DIRECTION dim           29  value    2.2408170713328561E-002
 DIRECTION dim           30  value   0.12780364237674338     
 DIRECTION dim           31  value   -3.3039655425651501E-002
 DIRECTION dim           32  value   -1.1013218475217190E-002
 DIRECTION dim           33  value   -4.1816126889574902E-002
 DIRECTION dim           34  value    9.5006847674399906E-003
 DIRECTION dim           35  value   -3.1668949224800025E-003
 DIRECTION dim           36  value    3.1204617379028361E-004
 DIRECTION dim           37  value   -2.7713196058724845E-003
 DIRECTION dim           38  value    5.4100166430025133E-003
 DIRECTION dim           39  value    8.0578264370272545E-002
 DIRECTION dim           40  value   -9.5006847674400097E-003
 DIRECTION dim           41  value    1.3193485185650068E-003
 DIRECTION dim           42  value  -0.11370246860800651     
 DIRECTION dim           43  value   0.10641042372224095     
 DIRECTION dim           44  value   0.11938636541325774     
 DIRECTION dim           45  value    8.7045512930933280E-002
 DIRECTION dim           46  value    2.6785861345274601E-003
 DIRECTION dim           47  value   -3.4183656126954148E-003
 DIRECTION dim           48  value    2.9036573873909660E-005
  Cycle:      1 Energy:      -232.053613  Gnorm:     22.022165  CPU:    0.026
 Perform trimming
 ALPHA BEFORE:    6.0000000000000010E-003
 XC BEFORE:   0.50013541085833690     
  ** Opt : line minimisation
left   ...       0.00000000    -232.05361285
centre ...       0.00100000    -232.52471168
right  ...       0.00200000    -232.99437400

left   ...       0.00000000    -232.05361285
centre ...       0.00100000    -232.52471168
right  ...       0.00200000    -232.99437400
new    ...       0.00300000    -233.46260203

__s__    ...       0.00100000

left   ...       0.00100000    -232.52471168
centre ...       0.00200000    -232.99437400
right  ...       0.00300000    -233.46260203
new    ...       0.00400000    -233.92939802

__s__    ...       0.00100000

left   ...       0.00200000    -232.99437400
centre ...       0.00300000    -233.46260203
right  ...       0.00400000    -233.92939802
new    ...       0.00500000    -234.39476421

__s__    ...       0.00100000

 ALPHA AFTER:    5.0000000000000010E-003
 XC AFTER:   0.50030423466551088     
 SANITY CHECK:    5.0000000000058895E-003
 DIRECTION dim            1  value    3.3764761434756013E-002
 DIRECTION dim            2  value   -1.9859189382692918E-003
 DIRECTION dim            3  value    3.4659171165672999E-002
 DIRECTION dim            4  value   -3.3793633313923058E-002
 DIRECTION dim            5  value    2.2313762094891541E-003
 DIRECTION dim            6  value   -6.6465327595084181E-002
 DIRECTION dim            7  value   -2.0469373999493497E-002
 DIRECTION dim            8  value   -1.8830170281312109E-002
 DIRECTION dim            9  value    5.5015321320031080E-003
 DIRECTION dim           10  value   -2.0284701108831453E-002
 DIRECTION dim           11  value    1.2059977977601529E-002
 DIRECTION dim           12  value    6.4327178000459602E-003
 DIRECTION dim           13  value    2.0218468597674000E-002
 DIRECTION dim           14  value    1.1852270119056176E-002
 DIRECTION dim           15  value   -5.3959477770069257E-002
 DIRECTION dim           16  value    2.0296716048787525E-002
 DIRECTION dim           17  value   -1.1877781519677106E-002
 DIRECTION dim           18  value   -4.4236799764686190E-002
 DIRECTION dim           19  value    3.4180385498522550E-002
 DIRECTION dim           20  value    9.3361989803238433E-003
 DIRECTION dim           21  value    4.4471000449671325E-002
 DIRECTION dim           22  value    3.4198061689418878E-002
 DIRECTION dim           23  value   -9.4183772290072094E-003
 DIRECTION dim           24  value    6.3703849710071647E-002
 DIRECTION dim           25  value   -4.9369149074274386E-002
 DIRECTION dim           26  value   -1.7918268039140206E-002
 DIRECTION dim           27  value   -9.5335487719311413E-002
 DIRECTION dim           28  value    2.0565608323130560E-003
 DIRECTION dim           29  value    3.3667198001654824E-002
 DIRECTION dim           30  value   0.19116786279847334     
 DIRECTION dim           31  value   -4.9958882933270408E-002
 DIRECTION dim           32  value   -1.6660954654068548E-002
 DIRECTION dim           33  value   -6.2650818448998696E-002
 DIRECTION dim           34  value    1.4627697240036576E-002
 DIRECTION dim           35  value   -4.8346119359965588E-003
 DIRECTION dim           36  value    1.2659197891558627E-003
 DIRECTION dim           37  value   -4.3304200514850686E-003
 DIRECTION dim           38  value    8.3947010162781742E-003
 DIRECTION dim           39  value   0.12000480911266884     
 DIRECTION dim           40  value   -1.4852547641926580E-002
 DIRECTION dim           41  value    1.9582299129726789E-003
 DIRECTION dim           42  value  -0.16988795553158889     
 DIRECTION dim           43  value   0.16035237003175498     
 DIRECTION dim           44  value   0.18000471148178607     
 DIRECTION dim           45  value   0.13148791173855512     
 DIRECTION dim           46  value    3.9817692236591437E-003
 DIRECTION dim           47  value   -5.2157115326640470E-003
 DIRECTION dim           48  value   -5.2785964510430288E-005
  Cycle:      2 Energy:      -234.394764  Gnorm:     21.695633  CPU:    0.034
 Perform trimming
 ALPHA BEFORE:    5.0000000000000010E-003
 XC BEFORE:   0.50030423466551088     
  ** Opt : line minimisation
left   ...       0.00000000    -234.39476421
centre ...       0.00100000    -235.09019649
right  ...       0.00200000    -235.78246994

left   ...       0.00000000    -234.39476421
centre ...       0.00100000    -235.09019649
right  ...       0.00200000    -235.78246994
new    ...       0.00300000    -236.47159206

__s__    ...       0.00100000

left   ...       0.00100000    -235.09019649
centre ...       0.00200000    -235.78246994
right  ...       0.00300000    -236.47159206
new    ...       0.00400000    -237.15757041

__s__    ...       0.00100000

left   ...       0.00200000    -235.78246994
centre ...       0.00300000    -236.47159206
right  ...       0.00400000    -237.15757041
new    ...       0.00500000    -237.84039337

__s__    ...       0.00100000

left   ...       0.00300000    -236.47159206
centre ...       0.00400000    -237.15757041
right  ...       0.00500000    -237.84039337
new    ...       0.00600000    -238.52010703

__s__    ...       0.00100000

left   ...       0.00400000    -237.15757041
centre ...       0.00500000    -237.84039337
right  ...       0.00600000    -238.52010703
new    ...       0.00700000    -239.19664221

__s__    ...       0.00100000

left   ...       0.00500000    -237.84039337
centre ...       0.00600000    -238.52010703
right  ...       0.00700000    -239.19664221
new    ...       0.00800000    -239.86996828

__s__    ...       0.00100000

 ALPHA AFTER:    8.0000000000000019E-003
 XC AFTER:   0.50070800075137090     
 SANITY CHECK:    7.9999999999916770E-003
 DIRECTION dim            1  value    5.0470760732554187E-002
 DIRECTION dim            2  value   -3.0254289196470266E-003
 DIRECTION dim            3  value    5.3838146012901600E-002
 DIRECTION dim            4  value   -5.0569909314149057E-002
 DIRECTION dim            5  value    3.8611546090638604E-003
 DIRECTION dim            6  value   -9.8261044885895210E-002
 DIRECTION dim            7  value   -3.1355763475552328E-002
 DIRECTION dim            8  value   -2.8872429042386853E-002
 DIRECTION dim            9  value    9.3094213124616382E-003
 DIRECTION dim           10  value   -3.0721863034633669E-002
 DIRECTION dim           11  value    1.8640969442453428E-002
 DIRECTION dim           12  value    8.9960402660593502E-003
 DIRECTION dim           13  value    3.0495380250869140E-002
 DIRECTION dim           14  value    1.7927394793031331E-002
 DIRECTION dim           15  value   -8.2192019282214479E-002
 DIRECTION dim           16  value    3.0764483766035560E-002
 DIRECTION dim           17  value   -1.8015589116935165E-002
 DIRECTION dim           18  value   -6.7427491303687803E-002
 DIRECTION dim           19  value    5.1875341034702351E-002
 DIRECTION dim           20  value    1.5214984843434542E-002
 DIRECTION dim           21  value    6.4069392460953917E-002
 DIRECTION dim           22  value    5.1937785501135217E-002
 DIRECTION dim           23  value   -1.5492935256271956E-002
 DIRECTION dim           24  value    9.2878500967313926E-002
 DIRECTION dim           25  value   -7.3691600233976404E-002
 DIRECTION dim           26  value   -2.7356709162624532E-002
 DIRECTION dim           27  value  -0.14170604867331599     
 DIRECTION dim           28  value    3.7319575934965220E-003
 DIRECTION dim           29  value    5.0609498374335697E-002
 DIRECTION dim           30  value   0.28570913178739460     
 DIRECTION dim           31  value   -7.5680277848452215E-002
 DIRECTION dim           32  value   -2.5254589906428374E-002
 DIRECTION dim           33  value   -9.3837788902175145E-002
 DIRECTION dim           34  value    2.2664502013605658E-002
 DIRECTION dim           35  value   -7.4129296918777430E-003
 DIRECTION dim           36  value    3.4002337349928104E-003
 DIRECTION dim           37  value   -6.8264659395385749E-003
 DIRECTION dim           38  value    1.3116187856640970E-002
 DIRECTION dim           39  value   0.17835813257147246     
 DIRECTION dim           40  value   -2.3400494020316548E-002
 DIRECTION dim           41  value    2.8954443955730089E-003
 DIRECTION dim           42  value  -0.25355755121283696     
 DIRECTION dim           43  value   0.24189619491095810     
 DIRECTION dim           44  value   0.27172914688246685     
 DIRECTION dim           45  value   0.19890082421663105     
 DIRECTION dim           46  value    5.9027809205456109E-003
 DIRECTION dim           47  value   -7.9861174404300440E-003
 DIRECTION dim           48  value   -2.5753255830132177E-004
  Cycle:      3 Energy:      -239.869968  Gnorm:     20.937718  CPU:    0.042
 ALPHA BEFORE:    8.0000000000000019E-003
 XC BEFORE:   0.50070800075137090     
  ** Opt : line minimisation
left   ...       0.00000000    -239.86996828
centre ...       0.00100000    -240.85287934
right  ...       0.00200000    -241.82924828

left   ...       0.00000000    -239.86996828
centre ...       0.00100000    -240.85287934
right  ...       0.00200000    -241.82924828
new    ...       0.00300000    -242.79917553

__s__    ...       0.00100000

left   ...       0.00100000    -240.85287934
centre ...       0.00200000    -241.82924828
right  ...       0.00300000    -242.79917553
new    ...       0.00400000    -243.76285746

__s__    ...       0.00100000

left   ...       0.00200000    -241.82924828
centre ...       0.00300000    -242.79917553
right  ...       0.00400000    -243.76285746
new    ...       0.00500000    -244.72016378

__s__    ...       0.00100000

left   ...       0.00300000    -242.79917553
centre ...       0.00400000    -243.76285746
right  ...       0.00500000    -244.72016378
new    ...       0.00600000    -245.67106069

__s__    ...       0.00100000

left   ...       0.00400000    -243.76285746
centre ...       0.00500000    -244.72016378
right  ...       0.00600000    -245.67106069
new    ...       0.00700000    -246.61580244

__s__    ...       0.00100000

left   ...       0.00500000    -244.72016378
centre ...       0.00600000    -245.67106069
right  ...       0.00700000    -246.61580244
new    ...       0.00800000    -247.55418241

__s__    ...       0.00100000

 ALPHA AFTER:    8.0000000000000019E-003
 XC AFTER:   0.50129480782193347     
 SANITY CHECK:    8.0000000000026057E-003
 DIRECTION dim            1  value    7.3350883820298404E-002
 DIRECTION dim            2  value   -4.5821241222844551E-003
 DIRECTION dim            3  value    8.5687905005991466E-002
 DIRECTION dim            4  value   -7.3706314955465924E-002
 DIRECTION dim            5  value    7.5221507534108459E-003
 DIRECTION dim            6  value  -0.13884678839253264     
 DIRECTION dim            7  value   -4.8383725894942123E-002
 DIRECTION dim            8  value   -4.4651762645415503E-002
 DIRECTION dim            9  value    1.7477126580047665E-002
 DIRECTION dim           10  value   -4.6105401606948995E-002
 DIRECTION dim           11  value    2.9379662619185419E-002
 DIRECTION dim           12  value    1.0796954673640904E-002
 DIRECTION dim           13  value    4.5299369328800014E-002
 DIRECTION dim           14  value    2.6808086695332155E-002
 DIRECTION dim           15  value  -0.12514698739674601     
 DIRECTION dim           16  value    4.6268650947168193E-002
 DIRECTION dim           17  value   -2.7129084752829633E-002
 DIRECTION dim           18  value  -0.10282171865658073     
 DIRECTION dim           19  value    7.8225484961751038E-002
 DIRECTION dim           20  value    2.6650753353648970E-002
 DIRECTION dim           21  value    8.4428522215689167E-002
 DIRECTION dim           22  value    7.8465454028448081E-002
 DIRECTION dim           23  value   -2.7615076514836915E-002
 DIRECTION dim           24  value   0.12656688775377589     
 DIRECTION dim           25  value  -0.10677232895721880     
 DIRECTION dim           26  value   -4.1894555994868264E-002
 DIRECTION dim           27  value  -0.20312677793863151     
 DIRECTION dim           28  value    7.8856898441321214E-003
 DIRECTION dim           29  value    7.4697549096132104E-002
 DIRECTION dim           30  value   0.41518409921544397     
 DIRECTION dim           31  value  -0.11367677738438481     
 DIRECTION dim           32  value   -3.7985637478611244E-002
 DIRECTION dim           33  value  -0.13715497019458300     
 DIRECTION dim           34  value    3.5944158080685726E-002
 DIRECTION dim           35  value   -1.1474992218734728E-002
 DIRECTION dim           36  value    1.0441065783527088E-002
 DIRECTION dim           37  value   -1.1247118250940087E-002
 DIRECTION dim           38  value    2.1113685350051269E-002
 DIRECTION dim           39  value   0.25550690023563316     
 DIRECTION dim           40  value   -3.8323898988531870E-002
 DIRECTION dim           41  value    4.0723441932419002E-003
 DIRECTION dim           42  value  -0.36719495265246188     
 DIRECTION dim           43  value   0.35985991931005540     
 DIRECTION dim           44  value   0.40492489207009141     
 DIRECTION dim           45  value   0.29760807112737370     
 DIRECTION dim           46  value    8.3953379745923939E-003
 DIRECTION dim           47  value   -1.2287609952997347E-002
 DIRECTION dim           48  value   -1.0026880966979377E-003
  Cycle:      4 Energy:      -247.554182  Gnorm:     19.896057  CPU:    0.050
 ALPHA BEFORE:    8.0000000000000019E-003
 XC BEFORE:   0.50129480782193347     
  ** Opt : line minimisation
left   ...       0.00000000    -247.55418241
centre ...       0.00100000    -248.41766637
right  ...       0.00200000    -249.27613171

left   ...       0.00000000    -247.55418241
centre ...       0.00100000    -248.41766637
right  ...       0.00200000    -249.27613171
new    ...       0.00300000    -250.12957687

__s__    ...       0.00100000

left   ...       0.00100000    -248.41766637
centre ...       0.00200000    -249.27613171
right  ...       0.00300000    -250.12957687
new    ...       0.00400000    -250.97796201

__s__    ...       0.00100000

left   ...       0.00200000    -249.27613171
centre ...       0.00300000    -250.12957687
right  ...       0.00400000    -250.97796201
new    ...       0.00500000    -251.82134346

__s__    ...       0.00100000

left   ...       0.00300000    -250.12957687
centre ...       0.00400000    -250.97796201
right  ...       0.00500000    -251.82134346
new    ...       0.00600000    -252.65977755

__s__    ...       0.00100000

left   ...       0.00400000    -250.97796201
centre ...       0.00500000    -251.82134346
right  ...       0.00600000    -252.65977755
new    ...       0.00700000    -253.49318613

__s__    ...       0.00100000

left   ...       0.00500000    -251.82134346
centre ...       0.00600000    -252.65977755
right  ...       0.00700000    -253.49318613
new    ...       0.00800000    -254.32168333

__s__    ...       0.00100000

 ALPHA AFTER:    8.0000000000000019E-003
 XC AFTER:   0.50182826339398101     
 SANITY CHECK:    7.9999999999992907E-003
 DIRECTION dim            1  value    6.6681946505947970E-002
 DIRECTION dim            2  value   -4.3467247626119265E-003
 DIRECTION dim            3  value    8.8399770487557636E-002
 DIRECTION dim            4  value   -6.7319614272786890E-002
 DIRECTION dim            5  value    9.5299802574767938E-003
 DIRECTION dim            6  value  -0.12077577589656710     
 DIRECTION dim            7  value   -4.8095014975734547E-002
 DIRECTION dim            8  value   -4.4521879004239477E-002
 DIRECTION dim            9  value    2.1352281756914577E-002
 DIRECTION dim           10  value   -4.3965181686497351E-002
 DIRECTION dim           11  value    3.0051515639015650E-002
 DIRECTION dim           12  value    6.6334261570762752E-003
 DIRECTION dim           13  value    4.2521631621841451E-002
 DIRECTION dim           14  value    2.5369952758462377E-002
 DIRECTION dim           15  value  -0.12209511047097862     
 DIRECTION dim           16  value    4.4291062039717152E-002
 DIRECTION dim           17  value   -2.5966448891632351E-002
 DIRECTION dim           18  value  -0.10049669332710444     
 DIRECTION dim           19  value    7.5065671264490597E-002
 DIRECTION dim           20  value    3.0494557096294020E-002
 DIRECTION dim           21  value    6.4922217687495315E-002
 DIRECTION dim           22  value    7.5537379435297744E-002
 DIRECTION dim           23  value   -3.2160042846426859E-002
 DIRECTION dim           24  value   0.10376272744376965     
 DIRECTION dim           25  value   -9.6783607068480285E-002
 DIRECTION dim           26  value   -4.1223162565682279E-002
 DIRECTION dim           27  value  -0.18112254155398302     
 DIRECTION dim           28  value    1.0789515928818105E-002
 DIRECTION dim           29  value    6.9782095230579752E-002
 DIRECTION dim           30  value   0.37792703186048532     
 DIRECTION dim           31  value  -0.10861451919393038     
 DIRECTION dim           32  value   -3.6372557813441224E-002
 DIRECTION dim           33  value  -0.12610655318519587     
 DIRECTION dim           34  value    3.7218277250096653E-002
 DIRECTION dim           35  value   -1.1487383516369923E-002
 DIRECTION dim           36  value    1.7227039218745757E-002
 DIRECTION dim           37  value   -1.2186853349545473E-002
 DIRECTION dim           38  value    2.2082286248119583E-002
 DIRECTION dim           39  value   0.22727681251274681     
 DIRECTION dim           40  value   -4.0826476793212954E-002
 DIRECTION dim           41  value    3.4801798195183381E-003
 DIRECTION dim           42  value  -0.33251861533850569     
 DIRECTION dim           43  value   0.33963953804079955     
 DIRECTION dim           44  value   0.38314121316592858     
 DIRECTION dim           45  value   0.28256183896538961     
 DIRECTION dim           46  value    7.3710212525047300E-003
 DIRECTION dim           47  value   -1.2092173184378725E-002
 DIRECTION dim           48  value   -1.7491482654978093E-003
  Cycle:      5 Energy:      -254.321683  Gnorm:     19.009321  CPU:    0.057
 ALPHA BEFORE:    8.0000000000000019E-003
 XC BEFORE:   0.50182826339398101     
  ** Opt : line minimisation
left   ...       0.00000000    -254.32168333
centre ...       0.00100000    -255.11413244
right  ...       0.00200000    -255.90225131

left   ...       0.00000000    -254.32168333
centre ...       0.00100000    -255.11413244
right  ...       0.00200000    -255.90225131
new    ...       0.00300000    -256.68605497

__s__    ...       0.00100000

left   ...       0.00100000    -255.11413244
centre ...       0.00200000    -255.90225131
right  ...       0.00300000    -256.68605497
new    ...       0.00400000    -257.46555842

__s__    ...       0.00100000

left   ...       0.00200000    -255.90225131
centre ...       0.00300000    -256.68605497
right  ...       0.00400000    -257.46555842
new    ...       0.00500000    -258.24079597

__s__    ...       0.00100000

left   ...       0.00300000    -256.68605497
centre ...       0.00400000    -257.46555842
right  ...       0.00500000    -258.24079597
new    ...       0.00600000    -259.01176350

__s__    ...       0.00100000

left   ...       0.00400000    -257.46555842
centre ...       0.00500000    -258.24079597
right  ...       0.00600000    -259.01176350
new    ...       0.00700000    -259.77845692

__s__    ...       0.00100000

left   ...       0.00500000    -258.24079597
centre ...       0.00600000    -259.01176350
right  ...       0.00700000    -259.77845692
new    ...       0.00800000    -260.54092983

__s__    ...       0.00100000

 ALPHA AFTER:    8.0000000000000019E-003
 XC AFTER:   0.50233116859320415     
 SANITY CHECK:    8.0000000000002881E-003
 DIRECTION dim            1  value    6.2863149902889728E-002
 DIRECTION dim            2  value   -4.1467483079292936E-003
 DIRECTION dim            3  value    9.2322961680526686E-002
 DIRECTION dim            4  value   -6.3747657723054837E-002
 DIRECTION dim            5  value    1.1326344939762898E-002
 DIRECTION dim            6  value  -0.10940376354691089     
 DIRECTION dim            7  value   -4.9071237437523549E-002
 DIRECTION dim            8  value   -4.5536423707542115E-002
 DIRECTION dim            9  value    2.4661270974000116E-002
 DIRECTION dim           10  value   -4.3234152881467071E-002
 DIRECTION dim           11  value    3.1329249020657188E-002
 DIRECTION dim           12  value    3.6290627214949915E-003
 DIRECTION dim           13  value    4.1208678593625300E-002
 DIRECTION dim           14  value    2.4682537870585219E-002
 DIRECTION dim           15  value  -0.12266642713001585     
 DIRECTION dim           16  value    4.3737600291223873E-002
 DIRECTION dim           17  value   -2.5551577892164855E-002
 DIRECTION dim           18  value  -0.10107193232296276     
 DIRECTION dim           19  value    7.4158432736586427E-002
 DIRECTION dim           20  value    3.4046349580470744E-002
 DIRECTION dim           21  value    5.1617653446407827E-002
 DIRECTION dim           22  value    7.4864057379958951E-002
 DIRECTION dim           23  value   -3.6312574068152553E-002
 DIRECTION dim           24  value    8.8888725140545272E-002
 DIRECTION dim           25  value   -9.1222305518585650E-002
 DIRECTION dim           26  value   -4.1713050521664533E-002
 DIRECTION dim           27  value  -0.16836605316098452     
 DIRECTION dim           28  value    1.3444434458029756E-002
 DIRECTION dim           29  value    6.7664512516085393E-002
 DIRECTION dim           30  value   0.35760094022258743     
 DIRECTION dim           31  value  -0.10702583947195719     
 DIRECTION dim           32  value   -3.5933099207983481E-002
 DIRECTION dim           33  value  -0.12056116084917842     
 DIRECTION dim           34  value    3.9424899225274125E-002
 DIRECTION dim           35  value   -1.1825576318284427E-002
 DIRECTION dim           36  value    2.2891828545114075E-002
 DIRECTION dim           37  value   -1.3280840405432846E-002
 DIRECTION dim           38  value    2.3367314157513298E-002
 DIRECTION dim           39  value   0.21036872952217342     
 DIRECTION dim           40  value   -4.3635170533264135E-002
 DIRECTION dim           41  value    3.0860797096139286E-003
 DIRECTION dim           42  value  -0.31325688219536718     
 DIRECTION dim           43  value   0.33194156666275565     
 DIRECTION dim           44  value   0.37530015892466345     
 DIRECTION dim           45  value   0.27685775240480137     
 DIRECTION dim           46  value    6.7311213611185887E-003
 DIRECTION dim           47  value   -1.2140459340398167E-002
 DIRECTION dim           48  value   -2.3373809229686607E-003
  Cycle:      6 Energy:      -260.540930  Gnorm:     18.220248  CPU:    0.064
 ALPHA BEFORE:    8.0000000000000019E-003
 XC BEFORE:   0.50233116859320415     
  ** Opt : line minimisation
left   ...       0.00000000    -260.54092983
centre ...       0.00100000    -261.27011084
right  ...       0.00200000    -261.99559702

left   ...       0.00000000    -260.54092983
centre ...       0.00100000    -261.27011084
right  ...       0.00200000    -261.99559702
new    ...       0.00300000    -262.71738174

__s__    ...       0.00100000

left   ...       0.00100000    -261.27011084
centre ...       0.00200000    -261.99559702
right  ...       0.00300000    -262.71738174
new    ...       0.00400000    -263.43545840

__s__    ...       0.00100000

left   ...       0.00200000    -261.99559702
centre ...       0.00300000    -262.71738174
right  ...       0.00400000    -263.43545840
new    ...       0.00500000    -264.14985884

__s__    ...       0.00100000

left   ...       0.00300000    -262.71738174
centre ...       0.00400000    -263.43545840
right  ...       0.00500000    -264.14985884
new    ...       0.00600000    -264.86061494

__s__    ...       0.00100000

left   ...       0.00400000    -263.43545840
centre ...       0.00500000    -264.14985884
right  ...       0.00600000    -264.86061494
new    ...       0.00700000    -265.56772009

__s__    ...       0.00100000

left   ...       0.00500000    -264.14985884
centre ...       0.00600000    -264.86061494
right  ...       0.00700000    -265.56772009
new    ...       0.00800000    -266.27116776

__s__    ...       0.00100000

 ALPHA AFTER:    8.0000000000000019E-003
 XC AFTER:   0.50280369438303119     
 SANITY CHECK:    8.0000000000063562E-003
 DIRECTION dim            1  value    5.9065723728332888E-002
 DIRECTION dim            2  value   -3.8599026087305327E-003
 DIRECTION dim            3  value    9.5191496429254951E-002
 DIRECTION dim            4  value   -6.0164403943469218E-002
 DIRECTION dim            5  value    1.2871698702246089E-002
 DIRECTION dim            6  value   -9.8806651566261894E-002
 DIRECTION dim            7  value   -4.9778517786267920E-002
 DIRECTION dim            8  value   -4.6290047762441756E-002
 DIRECTION dim            9  value    2.7299390763074988E-002
 DIRECTION dim           10  value   -4.2324691468870801E-002
 DIRECTION dim           11  value    3.2358701757916490E-002
 DIRECTION dim           12  value    1.0429105350973074E-003
 DIRECTION dim           13  value    3.9750555566615539E-002
 DIRECTION dim           14  value    2.3827412257798945E-002
 DIRECTION dim           15  value  -0.12272344337267618     
 DIRECTION dim           16  value    4.3019435104812979E-002
 DIRECTION dim           17  value   -2.4972684242274369E-002
 DIRECTION dim           18  value  -0.10117129128949465     
 DIRECTION dim           19  value    7.2865356648074808E-002
 DIRECTION dim           20  value    3.6928326048695559E-002
 DIRECTION dim           21  value    3.9895651937562789E-002
 DIRECTION dim           22  value    7.3808523705761783E-002
 DIRECTION dim           23  value   -3.9730343289208860E-002
 DIRECTION dim           24  value    7.5704690676693581E-002
 DIRECTION dim           25  value   -8.5852469864175343E-002
 DIRECTION dim           26  value   -4.2005324893383787E-002
 DIRECTION dim           27  value  -0.15645894790137252     
 DIRECTION dim           28  value    1.5843747945634763E-002
 DIRECTION dim           29  value    6.5562296239435353E-002
 DIRECTION dim           30  value   0.33799606423388318     
 DIRECTION dim           31  value  -0.10500638656306588     
 DIRECTION dim           32  value   -3.5351684117480048E-002
 DIRECTION dim           33  value  -0.11522362725203170     
 DIRECTION dim           34  value    4.1497547266046889E-002
 DIRECTION dim           35  value   -1.2128666840000107E-002
 DIRECTION dim           36  value    2.7795655998561972E-002
 DIRECTION dim           37  value   -1.4257634801011172E-002
 DIRECTION dim           38  value    2.4417690637058315E-002
 DIRECTION dim           39  value   0.19429796280211498     
 DIRECTION dim           40  value   -4.5876516870866503E-002
 DIRECTION dim           41  value    2.7207311290690143E-003
 DIRECTION dim           42  value  -0.29482021331338892     
 DIRECTION dim           43  value   0.32376043628829992     
 DIRECTION dim           44  value   0.36685449980145746     
 DIRECTION dim           45  value   0.27013897663270492     
 DIRECTION dim           46  value    6.1284936572445639E-003
 DIRECTION dim           47  value   -1.2057036973457811E-002
 DIRECTION dim           48  value   -2.8271635528840286E-003
  Cycle:      7 Energy:      -266.271168  Gnorm:     17.516238  CPU:    0.072
 ALPHA BEFORE:    8.0000000000000019E-003
 XC BEFORE:   0.50280369438303119     
  ** Opt : line minimisation
left   ...       0.00000000    -266.27116776
centre ...       0.00100000    -266.94613548
right  ...       0.00200000    -267.61788688

left   ...       0.00000000    -266.27116776
centre ...       0.00100000    -266.94613548
right  ...       0.00200000    -267.61788688
new    ...       0.00300000    -268.28641335

__s__    ...       0.00100000

left   ...       0.00100000    -266.94613548
centre ...       0.00200000    -267.61788688
right  ...       0.00300000    -268.28641335
new    ...       0.00400000    -268.95174477

__s__    ...       0.00100000

left   ...       0.00200000    -267.61788688
centre ...       0.00300000    -268.28641335
right  ...       0.00400000    -268.95174477
new    ...       0.00500000    -269.61389175

__s__    ...       0.00100000

left   ...       0.00300000    -268.28641335
centre ...       0.00400000    -268.95174477
right  ...       0.00500000    -269.61389175
new    ...       0.00600000    -270.27253450

__s__    ...       0.00100000

left   ...       0.00400000    -268.95174477
centre ...       0.00500000    -269.61389175
right  ...       0.00600000    -270.27253450
new    ...       0.00700000    -270.92836457

__s__    ...       0.00100000

left   ...       0.00500000    -269.61389175
centre ...       0.00600000    -270.27253450
right  ...       0.00700000    -270.92836457
new    ...       0.00800000    -271.58069266

__s__    ...       0.00100000

 ALPHA AFTER:    8.0000000000000019E-003
 XC AFTER:   0.50324793256193523     
 SANITY CHECK:    7.9999999999928219E-003
 DIRECTION dim            1  value    5.5529772363055320E-002
 DIRECTION dim            2  value   -3.5197264643911483E-003
 DIRECTION dim            3  value    9.7355686253945875E-002
 DIRECTION dim            4  value   -5.6805330867456788E-002
 DIRECTION dim            5  value    1.4208442673938171E-002
 DIRECTION dim            6  value   -8.9383712973931273E-002
 DIRECTION dim            7  value   -5.0371894800180894E-002
 DIRECTION dim            8  value   -4.6924996310840843E-002
 DIRECTION dim            9  value    2.9374097418232457E-002
 DIRECTION dim           10  value   -4.1401383933025532E-002
 DIRECTION dim           11  value    3.3231590011585592E-002
 DIRECTION dim           12  value   -1.1067764662263757E-003
 DIRECTION dim           13  value    3.8311243640691661E-002
 DIRECTION dim           14  value    2.2906307387035980E-002
 DIRECTION dim           15  value  -0.12267533255796537     
 DIRECTION dim           16  value    4.2296333925268791E-002
 DIRECTION dim           17  value   -2.4329756112385061E-002
 DIRECTION dim           18  value  -0.10113409468347118     
 DIRECTION dim           19  value    7.1473488532788010E-002
 DIRECTION dim           20  value    3.9296408666087516E-002
 DIRECTION dim           21  value    2.9861025727917996E-002
 DIRECTION dim           22  value    7.2651386000821119E-002
 DIRECTION dim           23  value   -4.2578081157540845E-002
 DIRECTION dim           24  value    6.4431280666536500E-002
 DIRECTION dim           25  value   -8.0981250156306403E-002
 DIRECTION dim           26  value   -4.2233409345612379E-002
 DIRECTION dim           27  value  -0.14595032178085338     
 DIRECTION dim           28  value    1.8005854106707010E-002
 DIRECTION dim           29  value    6.3680014488208231E-002
 DIRECTION dim           30  value   0.32037338127069748     
 DIRECTION dim           31  value  -0.10294897703104376     
 DIRECTION dim           32  value   -3.4753984889750178E-002
 DIRECTION dim           33  value  -0.11048775270063725     
 DIRECTION dim           34  value    4.3529644195329474E-002
 DIRECTION dim           35  value   -1.2430857238384534E-002
 DIRECTION dim           36  value    3.2030034134553319E-002
 DIRECTION dim           37  value   -1.5150428784157417E-002
 DIRECTION dim           38  value    2.5323895629638868E-002
 DIRECTION dim           39  value   0.17981550928219875     
 DIRECTION dim           40  value   -4.7738769837665257E-002
 DIRECTION dim           41  value    2.4061221898519863E-003
 DIRECTION dim           42  value  -0.27828364335611899     
 DIRECTION dim           43  value   0.31619562620771369     
 DIRECTION dim           44  value   0.35904345683125893     
 DIRECTION dim           45  value   0.26345988475396764     
 DIRECTION dim           46  value    5.5906503011842745E-003
 DIRECTION dim           47  value   -1.1892166616662645E-002
 DIRECTION dim           48  value   -3.2400483908146742E-003
  Cycle:      8 Energy:      -271.580693  Gnorm:     16.883862  CPU:    0.079
 ALPHA BEFORE:    8.0000000000000019E-003
 XC BEFORE:   0.50324793256193523     
  ** Opt : line minimisation
left   ...       0.00000000    -271.58069266
centre ...       0.00100000    -272.20815755
right  ...       0.00200000    -272.83285279

left   ...       0.00000000    -271.58069266
centre ...       0.00100000    -272.20815755
right  ...       0.00200000    -272.83285279
new    ...       0.00300000    -273.45472947

__s__    ...       0.00100000

left   ...       0.00100000    -272.20815755
centre ...       0.00200000    -272.83285279
right  ...       0.00300000    -273.45472947
new    ...       0.00400000    -274.07383520

__s__    ...       0.00100000

left   ...       0.00200000    -272.83285279
centre ...       0.00300000    -273.45472947
right  ...       0.00400000    -274.07383520
new    ...       0.00500000    -274.69033443

__s__    ...       0.00100000

left   ...       0.00300000    -273.45472947
centre ...       0.00400000    -274.07383520
right  ...       0.00500000    -274.69033443
new    ...       0.00600000    -275.30423598

__s__    ...       0.00100000

left   ...       0.00400000    -274.07383520
centre ...       0.00500000    -274.69033443
right  ...       0.00600000    -275.30423598
new    ...       0.00700000    -275.91519878

__s__    ...       0.00100000

left   ...       0.00500000    -274.69033443
centre ...       0.00600000    -275.30423598
right  ...       0.00700000    -275.91519878
new    ...       0.00800000    -276.52358176

__s__    ...       0.00100000

 ALPHA AFTER:    8.0000000000000019E-003
 XC AFTER:   0.50366565491329407     
 SANITY CHECK:    8.0000000000028451E-003
 DIRECTION dim            1  value    5.2215293919836453E-002
 DIRECTION dim            2  value   -3.1414090605079064E-003
 DIRECTION dim            3  value    9.8902222124209266E-002
 DIRECTION dim            4  value   -5.3628519468020844E-002
 DIRECTION dim            5  value    1.5363439678970189E-002
 DIRECTION dim            6  value   -8.0968787414716040E-002
 DIRECTION dim            7  value   -5.0847646681114057E-002
 DIRECTION dim            8  value   -4.7438179194935752E-002
 DIRECTION dim            9  value    3.0958845899467697E-002
 DIRECTION dim           10  value   -4.0462717214370600E-002
 DIRECTION dim           11  value    3.3951224317872702E-002
 DIRECTION dim           12  value   -2.8677768185206625E-003
 DIRECTION dim           13  value    3.6887282376502635E-002
 DIRECTION dim           14  value    2.1925002950557177E-002
 DIRECTION dim           15  value  -0.12250574477291237     
 DIRECTION dim           16  value    4.1562893663687338E-002
 DIRECTION dim           17  value   -2.3627540181275681E-002
 DIRECTION dim           18  value  -0.10095039516511929     
 DIRECTION dim           19  value    6.9990048620846318E-002
 DIRECTION dim           20  value    4.1228833664439218E-002
 DIRECTION dim           21  value    2.1241278529757008E-002
 DIRECTION dim           22  value    7.1395849209274248E-002
 DIRECTION dim           23  value   -4.4941881559862257E-002
 DIRECTION dim           24  value    5.4754643068394580E-002
 DIRECTION dim           25  value   -7.6514551463924801E-002
 DIRECTION dim           26  value   -4.2391839585729896E-002
 DIRECTION dim           27  value  -0.13659942637146674     
 DIRECTION dim           28  value    1.9945462236702981E-002
 DIRECTION dim           29  value    6.1958596572855393E-002
 DIRECTION dim           30  value   0.30440698643939645     
 DIRECTION dim           31  value  -0.10084388278908817     
 DIRECTION dim           32  value   -3.4131739362864830E-002
 DIRECTION dim           33  value  -0.10623768445208967     
 DIRECTION dim           34  value    4.5504743394794336E-002
 DIRECTION dim           35  value   -1.2728744417758344E-002
 DIRECTION dim           36  value    3.5685537906536946E-002
 DIRECTION dim           37  value   -1.5962929417736280E-002
 DIRECTION dim           38  value    2.6106392923334269E-002
 DIRECTION dim           39  value   0.16666856890794732     
 DIRECTION dim           40  value   -4.9282526943243386E-002
 DIRECTION dim           41  value    2.1434267950000072E-003
 DIRECTION dim           42  value  -0.26331681608434743     
 DIRECTION dim           43  value   0.30906432709727311     
 DIRECTION dim           44  value   0.35167029200369238     
 DIRECTION dim           45  value   0.25679152728057397     
 DIRECTION dim           46  value    5.1095784455401291E-003
 DIRECTION dim           47  value   -1.1654857324707720E-002
 DIRECTION dim           48  value   -3.5945399294061015E-003
  Cycle:      9 Energy:      -276.523582  Gnorm:     16.312254  CPU:    0.086
 ALPHA BEFORE:    8.0000000000000019E-003
 XC BEFORE:   0.50366565491329407     
  ** Opt : line minimisation
left   ...       0.00000000    -276.52358176
centre ...       0.00100000    -277.12973659
right  ...       0.00200000    -277.73307292

left   ...       0.00000000    -276.52358176
centre ...       0.00100000    -277.12973659
right  ...       0.00200000    -277.73307292
new    ...       0.00300000    -278.33377402

__s__    ...       0.00100000

left   ...       0.00100000    -277.12973659
centre ...       0.00200000    -277.73307292
right  ...       0.00300000    -278.33377402
new    ...       0.00400000    -278.93202356

__s__    ...       0.00100000

left   ...       0.00200000    -277.73307292
centre ...       0.00300000    -278.33377402
right  ...       0.00400000    -278.93202356
new    ...       0.00500000    -279.52747977

__s__    ...       0.00100000

left   ...       0.00300000    -278.33377402
centre ...       0.00400000    -278.93202356
right  ...       0.00500000    -279.52747977
new    ...       0.00600000    -280.12050132

__s__    ...       0.00100000

left   ...       0.00400000    -278.93202356
centre ...       0.00500000    -279.52747977
right  ...       0.00600000    -280.12050132
new    ...       0.00700000    -280.71090220

__s__    ...       0.00100000

left   ...       0.00500000    -279.52747977
centre ...       0.00600000    -280.12050132
right  ...       0.00700000    -280.71090220
new    ...       0.00800000    -281.29837950

__s__    ...       0.00100000

 ALPHA AFTER:    8.0000000000000019E-003
 XC AFTER:   0.50407204167570807     
 SANITY CHECK:    8.0000000000029388E-003
 DIRECTION dim            1  value    5.0798345301731544E-002
 DIRECTION dim            2  value   -2.8399936448634104E-003
 DIRECTION dim            3  value   0.10312739600634405     
 DIRECTION dim            4  value   -5.2355592704717742E-002
 DIRECTION dim            5  value    1.6858607425456269E-002
 DIRECTION dim            6  value   -7.6076222737607516E-002
 DIRECTION dim            7  value   -5.2862925554456618E-002
 DIRECTION dim            8  value   -4.9376002511795948E-002
 DIRECTION dim            9  value    3.3124310189836387E-002
 DIRECTION dim           10  value   -4.0829601368735376E-002
 DIRECTION dim           11  value    3.5629035318592760E-002
 DIRECTION dim           12  value   -4.3729361700198741E-003
 DIRECTION dim           13  value    3.6681837255721404E-002
 DIRECTION dim           14  value    2.1606176929046723E-002
 DIRECTION dim           15  value  -0.12619865913458056     
 DIRECTION dim           16  value    4.2173033997166549E-002
 DIRECTION dim           17  value   -2.3642955271797036E-002
 DIRECTION dim           18  value  -0.10391071494165635     
 DIRECTION dim           19  value    7.0707872518146878E-002
 DIRECTION dim           20  value    4.4129884029089884E-002
 DIRECTION dim           21  value    1.4520994267487167E-002
 DIRECTION dim           22  value    7.2377188548160623E-002
 DIRECTION dim           23  value   -4.8352593590230149E-002
 DIRECTION dim           24  value    4.8219931227228528E-002
 DIRECTION dim           25  value   -7.4882172890177068E-002
 DIRECTION dim           26  value   -4.3860609852679262E-002
 DIRECTION dim           27  value  -0.13268236257950164     
 DIRECTION dim           28  value    2.2324718336722605E-002
 DIRECTION dim           29  value    6.2376361353559527E-002
 DIRECTION dim           30  value   0.29978342193061336     
 DIRECTION dim           31  value  -0.10197875366781699     
 DIRECTION dim           32  value   -3.4593988246310506E-002
 DIRECTION dim           33  value  -0.10585262836576396     
 DIRECTION dim           34  value    4.8891444763464638E-002
 DIRECTION dim           35  value   -1.3434189939905463E-002
 DIRECTION dim           36  value    3.9994952116695098E-002
 DIRECTION dim           37  value   -1.7218431554197458E-002
 DIRECTION dim           38  value    2.7631929016168795E-002
 DIRECTION dim           39  value   0.16010851978166213     
 DIRECTION dim           40  value   -5.2159420378881861E-002
 DIRECTION dim           41  value    2.0028193544295073E-003
 DIRECTION dim           42  value  -0.25826603845188817     
 DIRECTION dim           43  value   0.31232452308992659     
 DIRECTION dim           44  value   0.35606547726386756     
 DIRECTION dim           45  value   0.25849869442293150     
 DIRECTION dim           46  value    4.8458251527825919E-003
 DIRECTION dim           47  value   -1.1734289667428972E-002
 DIRECTION dim           48  value   -4.0214278362412465E-003
  Cycle:     10 Energy:      -281.298380  Gnorm:     15.774999  CPU:    0.093
 ALPHA BEFORE:    8.0000000000000019E-003
 XC BEFORE:   0.50407204167570807     
  ** Opt : line minimisation
left   ...       0.00000000    -281.29837950
centre ...       0.00100000    -281.84613309
right  ...       0.00200000    -282.38996357

left   ...       0.00000000    -281.29837950
centre ...       0.00100000    -281.84613309
right  ...       0.00200000    -282.38996357
new    ...       0.00300000    -282.93162840

__s__    ...       0.00100000

left   ...       0.00100000    -281.84613309
centre ...       0.00200000    -282.38996357
right  ...       0.00300000    -282.93162840
new    ...       0.00400000    -283.47113499

__s__    ...       0.00100000

left   ...       0.00200000    -282.38996357
centre ...       0.00300000    -282.93162840
right  ...       0.00400000    -283.47113499
new    ...       0.00500000    -284.00848961

__s__    ...       0.00100000

left   ...       0.00300000    -282.93162840
centre ...       0.00400000    -283.47113499
right  ...       0.00500000    -284.00848961
new    ...       0.00600000    -284.54544808

__s__    ...       0.00100000

left   ...       0.00400000    -283.47113499
centre ...       0.00500000    -284.00848961
right  ...       0.00600000    -284.54544808
new    ...       0.00700000    -285.08026473

__s__    ...       0.00100000

left   ...       0.00500000    -284.00848961
centre ...       0.00600000    -284.54544808
right  ...       0.00700000    -285.08026473
new    ...       0.00800000    -285.61277121

__s__    ...       0.00100000

 ALPHA AFTER:    8.0000000000000019E-003
 XC AFTER:   0.50443995227700089     
 SANITY CHECK:    8.0000000000026317E-003
 DIRECTION dim            1  value    4.5988825161587386E-002
 DIRECTION dim            2  value   -2.3027773724709670E-003
 DIRECTION dim            3  value   0.10033684370611158     
 DIRECTION dim            4  value   -4.7559071665755487E-002
 DIRECTION dim            5  value    1.7220035945359730E-002
 DIRECTION dim            6  value   -6.6344806221592889E-002
 DIRECTION dim            7  value   -5.1393718607302505E-002
 DIRECTION dim            8  value   -4.8053320612674269E-002
 DIRECTION dim            9  value    3.2895474767629149E-002
 DIRECTION dim           10  value   -3.8465473148685043E-002
 DIRECTION dim           11  value    3.4927737526030345E-002
 DIRECTION dim           12  value   -5.4210717999276020E-003
 DIRECTION dim           13  value    3.3996939697033962E-002
 DIRECTION dim           14  value    1.9753219089332436E-002
 DIRECTION dim           15  value  -0.12160977697819365     
 DIRECTION dim           16  value    3.9983125874222418E-002
 DIRECTION dim           17  value   -2.2019006605555669E-002
 DIRECTION dim           18  value  -0.10000459199116202     
 DIRECTION dim           19  value    6.6653125142358466E-002
 DIRECTION dim           20  value    4.4011855289485445E-002
 DIRECTION dim           21  value    7.1849367929476930E-003
 DIRECTION dim           22  value    6.8487593023677129E-002
 DIRECTION dim           23  value   -4.8470349104811752E-002
 DIRECTION dim           24  value    3.8942228001286050E-002
 DIRECTION dim           25  value   -6.8324024650195478E-002
 DIRECTION dim           26  value   -4.2445373400371279E-002
 DIRECTION dim           27  value  -0.12025494566143849     
 DIRECTION dim           28  value    2.3236510301174015E-002
 DIRECTION dim           29  value    5.8720040157599088E-002
 DIRECTION dim           30  value   0.27569698398337389     
 DIRECTION dim           31  value   -9.6301318066641967E-002
 DIRECTION dim           32  value   -3.2736246817521839E-002
 DIRECTION dim           33  value   -9.8621986076351587E-002
 DIRECTION dim           34  value    4.9232066860577565E-002
 DIRECTION dim           35  value   -1.3294103898751717E-002
 DIRECTION dim           36  value    4.1582683409014803E-002
 DIRECTION dim           37  value   -1.7364534953319060E-002
 DIRECTION dim           38  value    2.7345239891878009E-002
 DIRECTION dim           39  value   0.14309164837342217     
 DIRECTION dim           40  value   -5.1560066295236448E-002
 DIRECTION dim           41  value    1.7633972291383328E-003
 DIRECTION dim           42  value  -0.23641833415383978     
 DIRECTION dim           43  value   0.29505508136723191     
 DIRECTION dim           44  value   0.33707723528983080     
 DIRECTION dim           45  value   0.24292603672182492     
 DIRECTION dim           46  value    4.2740379085207721E-003
 DIRECTION dim           47  value   -1.0971455661177845E-002
 DIRECTION dim           48  value   -4.1838941466659126E-003
  Cycle:     11 Energy:      -285.612771  Gnorm:     15.302180  CPU:    0.100
 ALPHA BEFORE:    8.0000000000000019E-003
 XC BEFORE:   0.50443995227700089     
  ** Opt : line minimisation
left   ...       0.00000000    -285.61277121
centre ...       0.00100000    -286.12926096
right  ...       0.00200000    -286.64414878

left   ...       0.00000000    -285.61277121
centre ...       0.00100000    -286.12926096
right  ...       0.00200000    -286.64414878
new    ...       0.00300000    -287.15705174

__s__    ...       0.00100000

left   ...       0.00100000    -286.12926096
centre ...       0.00200000    -286.64414878
right  ...       0.00300000    -287.15705174
new    ...       0.00400000    -287.66770256

__s__    ...       0.00100000

left   ...       0.00200000    -286.64414878
centre ...       0.00300000    -287.15705174
right  ...       0.00400000    -287.66770256
new    ...       0.00500000    -288.17676841

__s__    ...       0.00100000

left   ...       0.00300000    -287.15705174
centre ...       0.00400000    -287.66770256
right  ...       0.00500000    -288.17676841
new    ...       0.00600000    -288.68390465

__s__    ...       0.00100000

left   ...       0.00400000    -287.66770256
centre ...       0.00500000    -288.17676841
right  ...       0.00600000    -288.68390465
new    ...       0.00700000    -289.18911688

__s__    ...       0.00100000

left   ...       0.00500000    -288.17676841
centre ...       0.00600000    -288.68390465
right  ...       0.00700000    -289.18911688
new    ...       0.00800000    -289.69206098

__s__    ...       0.00100000

 ALPHA AFTER:    8.0000000000000019E-003
 XC AFTER:   0.50478697562054986     
 SANITY CHECK:    7.9999999999923639E-003
 DIRECTION dim            1  value    4.3377917943662518E-002
 DIRECTION dim            2  value   -1.8872890279571734E-003
 DIRECTION dim            3  value   0.10074578555484029     
 DIRECTION dim            4  value   -4.4972938695323428E-002
 DIRECTION dim            5  value    1.7991460305192455E-002
 DIRECTION dim            6  value   -6.0559598660408193E-002
 DIRECTION dim            7  value   -5.1685768083102587E-002
 DIRECTION dim            8  value   -4.8361367124593296E-002
 DIRECTION dim            9  value    3.3443008285948879E-002
 DIRECTION dim           10  value   -3.7626532060161789E-002
 DIRECTION dim           11  value    3.5328196874303407E-002
 DIRECTION dim           12  value   -6.2389639315951284E-003
 DIRECTION dim           13  value    3.2746868294399260E-002
 DIRECTION dim           14  value    1.8710393265203330E-002
 DIRECTION dim           15  value  -0.12143679329521723     
 DIRECTION dim           16  value    3.9348976034007860E-002
 DIRECTION dim           17  value   -2.1255831341533176E-002
 DIRECTION dim           18  value   -9.9705775791100987E-002
 DIRECTION dim           19  value    6.5189857343754348E-002
 DIRECTION dim           20  value    4.5085274624312874E-002
 DIRECTION dim           21  value    1.7949134578693722E-003
 DIRECTION dim           22  value    6.7219228536704992E-002
 DIRECTION dim           23  value   -4.9870506404647415E-002
 DIRECTION dim           24  value    3.2982520316032070E-002
 DIRECTION dim           25  value   -6.4995903461315313E-002
 DIRECTION dim           26  value   -4.2527605120844601E-002
 DIRECTION dim           27  value  -0.11390757691557681     
 DIRECTION dim           28  value    2.4640512717193745E-002
 DIRECTION dim           29  value    5.7475082358851570E-002
 DIRECTION dim           30  value   0.26446227583160764     
 DIRECTION dim           31  value   -9.4395282326320606E-002
 DIRECTION dim           32  value   -3.2137905781511530E-002
 DIRECTION dim           33  value   -9.5745195211786399E-002
 DIRECTION dim           34  value    5.1105035625951832E-002
 DIRECTION dim           35  value   -1.3603291163306558E-002
 DIRECTION dim           36  value    4.3981378023414827E-002
 DIRECTION dim           37  value   -1.8004488746565801E-002
 DIRECTION dim           38  value    2.7923268147575710E-002
 DIRECTION dim           39  value   0.13355699683523856     
 DIRECTION dim           40  value   -5.2539075950939818E-002
 DIRECTION dim           41  value    1.6625681761003569E-003
 DIRECTION dim           42  value  -0.22579741228810674     
 DIRECTION dim           43  value   0.28964326284944625     
 DIRECTION dim           44  value   0.33150963062568051     
 DIRECTION dim           45  value   0.23713316277135774     
 DIRECTION dim           46  value    3.9469989063606620E-003
 DIRECTION dim           47  value   -1.0603141321200880E-002
 DIRECTION dim           48  value   -4.4448685099200283E-003
  Cycle:     12 Energy:      -289.692061  Gnorm:     14.865843  CPU:    0.107
 ALPHA BEFORE:    8.0000000000000019E-003
 XC BEFORE:   0.50478697562054986     
  ** Opt : line minimisation
left   ...       0.00000000    -289.69206098
centre ...       0.00100000    -290.17989263
right  ...       0.00200000    -290.66597021

left   ...       0.00000000    -289.69206098
centre ...       0.00100000    -290.17989263
right  ...       0.00200000    -290.66597021
new    ...       0.00300000    -291.15027941

__s__    ...       0.00100000

left   ...       0.00100000    -290.17989263
centre ...       0.00200000    -290.66597021
right  ...       0.00300000    -291.15027941
new    ...       0.00400000    -291.63268858

__s__    ...       0.00100000

left   ...       0.00200000    -290.66597021
centre ...       0.00300000    -291.15027941
right  ...       0.00400000    -291.63268858
new    ...       0.00500000    -292.11353346

__s__    ...       0.00100000

 ALPHA AFTER:    5.0000000000000010E-003
 XC AFTER:   0.50499099824883609     
 SANITY CHECK:    4.9999999999956980E-003
 DIRECTION dim            1  value    4.0804525657280460E-002
 DIRECTION dim            2  value   -1.4644016366820577E-003
 DIRECTION dim            3  value   0.10061783243721475     
 DIRECTION dim            4  value   -4.2386443853182507E-002
 DIRECTION dim            5  value    1.8626553062938516E-002
 DIRECTION dim            6  value   -5.5200417192000341E-002
 DIRECTION dim            7  value   -5.1780720473956265E-002
 DIRECTION dim            8  value   -4.8475785442333059E-002
 DIRECTION dim            9  value    3.3660541019175941E-002
 DIRECTION dim           10  value   -3.6705956652738611E-002
 DIRECTION dim           11  value    3.5544522228636515E-002
 DIRECTION dim           12  value   -6.8099613347870173E-003
 DIRECTION dim           13  value    3.1445535029496180E-002
 DIRECTION dim           14  value    1.7595647794754563E-002
 DIRECTION dim           15  value  -0.12091351352302965     
 DIRECTION dim           16  value    3.8625405522610047E-002
 DIRECTION dim           17  value   -2.0416083990308861E-002
 DIRECTION dim           18  value   -9.9090287478448474E-002
 DIRECTION dim           19  value    6.3547368787504152E-002
 DIRECTION dim           20  value    4.5843647581239703E-002
 DIRECTION dim           21  value   -2.9039664761014877E-003
 DIRECTION dim           22  value    6.5754617718140479E-002
 DIRECTION dim           23  value   -5.0918598653660344E-002
 DIRECTION dim           24  value    2.7732581881706322E-002
 DIRECTION dim           25  value   -6.1730728242440448E-002
 DIRECTION dim           26  value   -4.2468191364677992E-002
 DIRECTION dim           27  value  -0.10789060994310531     
 DIRECTION dim           28  value    2.5843472199379776E-002
 DIRECTION dim           29  value    5.6160332707083808E-002
 DIRECTION dim           30  value   0.25353676576257950     
 DIRECTION dim           31  value   -9.2268904412032879E-002
 DIRECTION dim           32  value   -3.1447435118352934E-002
 DIRECTION dim           33  value   -9.2896068622324135E-002
 DIRECTION dim           34  value    5.2804345351237368E-002
 DIRECTION dim           35  value   -1.3876648545150810E-002
 DIRECTION dim           36  value    4.5974381165028014E-002
 DIRECTION dim           37  value   -1.8552498434005780E-002
 DIRECTION dim           38  value    2.8381098540311452E-002
 DIRECTION dim           39  value   0.12444300913264364     
 DIRECTION dim           40  value   -5.3250259491384920E-002
 DIRECTION dim           41  value    1.6036153761448454E-003
 DIRECTION dim           42  value  -0.21548882584574233     
 DIRECTION dim           43  value   0.28375476941818517     
 DIRECTION dim           44  value   0.32536051657539389     
 DIRECTION dim           45  value   0.23083574045158425     
 DIRECTION dim           46  value    3.6433081214927890E-003
 DIRECTION dim           47  value   -1.0172594756991206E-002
 DIRECTION dim           48  value   -4.6807350883489116E-003
  Cycle:     13 Energy:      -292.113533  Gnorm:     14.612079  CPU:    0.113
 ALPHA BEFORE:    5.0000000000000010E-003
 XC BEFORE:   0.50499099824883609     
  ** Opt : line minimisation
left   ...       0.00000000    -292.11353346
centre ...       0.00100000    -292.58979293
right  ...       0.00200000    -293.06437029

left   ...       0.00000000    -292.11353346
centre ...       0.00100000    -292.58979293
right  ...       0.00200000    -293.06437029
new    ...       0.00300000    -293.53707605

__s__    ...       0.00100000

left   ...       0.00100000    -292.58979293
centre ...       0.00200000    -293.06437029
right  ...       0.00300000    -293.53707605
new    ...       0.00400000    -294.00830334

__s__    ...       0.00100000

left   ...       0.00200000    -293.06437029
centre ...       0.00300000    -293.53707605
right  ...       0.00400000    -294.00830334
new    ...       0.00500000    -294.47784320

__s__    ...       0.00100000

 ALPHA AFTER:    5.0000000000000010E-003
 XC AFTER:   0.50518960066647645     
 SANITY CHECK:    5.0000000000037428E-003
 DIRECTION dim            1  value    3.9720483528042048E-002
 DIRECTION dim            2  value   -1.2204380840393366E-003
 DIRECTION dim            3  value   0.10138810969692127     
 DIRECTION dim            4  value   -4.1294329885277078E-002
 DIRECTION dim            5  value    1.9153845788039043E-002
 DIRECTION dim            6  value   -5.2791247851962972E-002
 DIRECTION dim            7  value   -5.2320845760273439E-002
 DIRECTION dim            8  value   -4.8992434392608662E-002
 DIRECTION dim            9  value    3.3998193315296785E-002
 DIRECTION dim           10  value   -3.6521652647820049E-002
 DIRECTION dim           11  value    3.5977425816835898E-002
 DIRECTION dim           12  value   -7.0953055073407984E-003
 DIRECTION dim           13  value    3.0987178286817747E-002
 DIRECTION dim           14  value    1.7080198082032753E-002
 DIRECTION dim           15  value  -0.12177428476615973     
 DIRECTION dim           16  value    3.8578090091933984E-002
 DIRECTION dim           17  value   -2.0096710119570840E-002
 DIRECTION dim           18  value   -9.9664958472616846E-002
 DIRECTION dim           19  value    6.3179887062089601E-002
 DIRECTION dim           20  value    4.6661564814195054E-002
 DIRECTION dim           21  value   -5.4225539275438604E-003
 DIRECTION dim           22  value    6.5509484257335604E-002
 DIRECTION dim           23  value   -5.1952377524576654E-002
 DIRECTION dim           24  value    2.5226681903501611E-002
 DIRECTION dim           25  value   -6.0480104095593720E-002
 DIRECTION dim           26  value   -4.2835102170109364E-002
 DIRECTION dim           27  value  -0.10563736815553781     
 DIRECTION dim           28  value    2.6756990825434198E-002
 DIRECTION dim           29  value    5.5950356552639344E-002
 DIRECTION dim           30  value   0.24993117357828415     
 DIRECTION dim           31  value   -9.1905438503168221E-002
 DIRECTION dim           32  value   -3.1337093991113771E-002
 DIRECTION dim           33  value   -9.2229185147957943E-002
 DIRECTION dim           34  value    5.4339998669766687E-002
 DIRECTION dim           35  value   -1.4178793990297379E-002
 DIRECTION dim           36  value    4.7488752982332585E-002
 DIRECTION dim           37  value   -1.9042657453708204E-002
 DIRECTION dim           38  value    2.8923665955917447E-002
 DIRECTION dim           39  value   0.12054855333422042     
 DIRECTION dim           40  value   -5.4150234986005179E-002
 DIRECTION dim           41  value    1.6116050911834721E-003
 DIRECTION dim           42  value  -0.21184146866054085     
 DIRECTION dim           43  value   0.28313341195647307     
 DIRECTION dim           44  value   0.32499240879582125     
 DIRECTION dim           45  value   0.22937935512259097     
 DIRECTION dim           46  value    3.5121562976559413E-003
 DIRECTION dim           47  value   -9.9930625769110541E-003
 DIRECTION dim           48  value   -4.8662370590122706E-003
  Cycle:     14 Energy:      -294.477843  Gnorm:     14.367281  CPU:    0.117
 ALPHA BEFORE:    5.0000000000000010E-003
 XC BEFORE:   0.50518960066647645     
  ** Opt : line minimisation
left   ...       0.00000000    -294.47784320
centre ...       0.00100000    -294.93799151
right  ...       0.00200000    -295.39656049

left   ...       0.00000000    -294.47784320
centre ...       0.00100000    -294.93799151
right  ...       0.00200000    -295.39656049
new    ...       0.00300000    -295.85355439

__s__    ...       0.00100000

left   ...       0.00100000    -294.93799151
centre ...       0.00200000    -295.39656049
right  ...       0.00300000    -295.85355439
new    ...       0.00400000    -296.30897744

__s__    ...       0.00100000

left   ...       0.00200000    -295.39656049
centre ...       0.00300000    -295.85355439
right  ...       0.00400000    -296.30897744
new    ...       0.00500000    -296.76283387

__s__    ...       0.00100000

 ALPHA AFTER:    5.0000000000000010E-003
 XC AFTER:   0.50538061615348751     
 SANITY CHECK:    4.9999999999997919E-003
 DIRECTION dim            1  value    3.8203097402213428E-002
 DIRECTION dim            2  value   -9.5532195742575573E-004
 DIRECTION dim            3  value   0.10100731140994282     
 DIRECTION dim            4  value   -3.9740004387335028E-002
 DIRECTION dim            5  value    1.9466594769278540E-002
 DIRECTION dim            6  value   -4.9875838593299110E-002
 DIRECTION dim            7  value   -5.2289126658302321E-002
 DIRECTION dim            8  value   -4.8970973948634262E-002
 DIRECTION dim            9  value    3.3910567290852435E-002
 DIRECTION dim           10  value   -3.5935707405720087E-002
 DIRECTION dim           11  value    3.6005232451180216E-002
 DIRECTION dim           12  value   -7.2470759006171811E-003
 DIRECTION dim           13  value    3.0182314557294972E-002
 DIRECTION dim           14  value    1.6350899037488740E-002
 DIRECTION dim           15  value  -0.12132684004819941     
 DIRECTION dim           16  value    3.8110435067945397E-002
 DIRECTION dim           17  value   -1.9539145581626585E-002
 DIRECTION dim           18  value   -9.9153371659245246E-002
 DIRECTION dim           19  value    6.2104148645633947E-002
 DIRECTION dim           20  value    4.6945575291569369E-002
 DIRECTION dim           21  value   -7.7954737801089009E-003
 DIRECTION dim           22  value    6.4531109577760981E-002
 DIRECTION dim           23  value   -5.2395273950980280E-002
 DIRECTION dim           24  value    2.2559501780174504E-002
 DIRECTION dim           25  value   -5.8582381329206075E-002
 DIRECTION dim           26  value   -4.2738517003136009E-002
 DIRECTION dim           27  value  -0.10230748754140734     
 DIRECTION dim           28  value    2.7372684139308757E-002
 DIRECTION dim           29  value    5.5140729926738866E-002
 DIRECTION dim           30  value   0.24372658713102738     
 DIRECTION dim           31  value   -9.0531121401862438E-002
 DIRECTION dim           32  value   -3.0875302972164755E-002
 DIRECTION dim           33  value   -9.0601969646432023E-002
 DIRECTION dim           34  value    5.5326379086311370E-002
 DIRECTION dim           35  value   -1.4337248426519001E-002
 DIRECTION dim           36  value    4.8461026125982347E-002
 DIRECTION dim           37  value   -1.9330923275876453E-002
 DIRECTION dim           38  value    2.9157169477966528E-002
 DIRECTION dim           39  value   0.11539279326208653     
 DIRECTION dim           40  value   -5.4455605388110277E-002
 DIRECTION dim           41  value    1.6172072620038273E-003
 DIRECTION dim           42  value  -0.20597581003350532     
 DIRECTION dim           43  value   0.27946186603732281     
 DIRECTION dim           44  value   0.32112484165369976     
 DIRECTION dim           45  value   0.22539473529883755     
 DIRECTION dim           46  value    3.3467348327230490E-003
 DIRECTION dim           47  value   -9.6864135123909158E-003
 DIRECTION dim           48  value   -5.0047104740811432E-003
  Cycle:     15 Energy:      -296.762834  Gnorm:     14.133476  CPU:    0.122
 ALPHA BEFORE:    5.0000000000000010E-003
 XC BEFORE:   0.50538061615348751     
  ** Opt : line minimisation
left   ...       0.00000000    -296.76283387
centre ...       0.00100000    -297.20800742
right  ...       0.00200000    -297.65169395

left   ...       0.00000000    -296.76283387
centre ...       0.00100000    -297.20800742
right  ...       0.00200000    -297.65169395
new    ...       0.00300000    -298.09389736

__s__    ...       0.00100000

left   ...       0.00100000    -297.20800742
centre ...       0.00200000    -297.65169395
right  ...       0.00300000    -298.09389736
new    ...       0.00400000    -298.53462155

__s__    ...       0.00100000

left   ...       0.00200000    -297.65169395
centre ...       0.00300000    -298.09389736
right  ...       0.00400000    -298.53462155
new    ...       0.00500000    -298.97387041

__s__    ...       0.00100000

 ALPHA AFTER:    5.0000000000000010E-003
 XC AFTER:   0.50556441851417733     
 SANITY CHECK:    4.9999999999949330E-003
 DIRECTION dim            1  value    3.6760472138001661E-002
 DIRECTION dim            2  value   -6.9624938947674775E-004
 DIRECTION dim            3  value   0.10058957295968908     
 DIRECTION dim            4  value   -3.8249642775433607E-002
 DIRECTION dim            5  value    1.9756393951206083E-002
 DIRECTION dim            6  value   -4.7178238835290459E-002
 DIRECTION dim            7  value   -5.2253354000046236E-002
 DIRECTION dim            8  value   -4.8942518580205166E-002
 DIRECTION dim            9  value    3.3767492738152084E-002
 DIRECTION dim           10  value   -3.5374036180569515E-002
 DIRECTION dim           11  value    3.6014379133699745E-002
 DIRECTION dim           12  value   -7.3296178164572335E-003
 DIRECTION dim           13  value    2.9407609348955623E-002
 DIRECTION dim           14  value    1.5629217925481068E-002
 DIRECTION dim           15  value  -0.12091272921522281     
 DIRECTION dim           16  value    3.7664477139195955E-002
 DIRECTION dim           17  value   -1.8988651883132739E-002
 DIRECTION dim           18  value   -9.8659618751416781E-002
 DIRECTION dim           19  value    6.1059585196708441E-002
 DIRECTION dim           20  value    4.7185879989612982E-002
 DIRECTION dim           21  value   -9.9554869581357664E-003
 DIRECTION dim           22  value    6.3578699276925235E-002
 DIRECTION dim           23  value   -5.2786939598681783E-002
 DIRECTION dim           24  value    2.0144807830495381E-002
 DIRECTION dim           25  value   -5.6790540808034383E-002
 DIRECTION dim           26  value   -4.2646758387589592E-002
 DIRECTION dim           27  value   -9.9219820812378345E-002
 DIRECTION dim           28  value    2.7947333960220866E-002
 DIRECTION dim           29  value    5.4377128095852781E-002
 DIRECTION dim           30  value   0.23795254680859107     
 DIRECTION dim           31  value   -8.9211377803999306E-002
 DIRECTION dim           32  value   -3.0424795750947670E-002
 DIRECTION dim           33  value   -8.9098123451672381E-002
 DIRECTION dim           34  value    5.6302497279281792E-002
 DIRECTION dim           35  value   -1.4497451785929958E-002
 DIRECTION dim           36  value    4.9353748347911411E-002
 DIRECTION dim           37  value   -1.9608155452894734E-002
 DIRECTION dim           38  value    2.9384373445743052E-002
 DIRECTION dim           39  value   0.11054985011898881     
 DIRECTION dim           40  value   -5.4737901462560586E-002
 DIRECTION dim           41  value    1.6392832102207996E-003
 DIRECTION dim           42  value  -0.20049233815607059     
 DIRECTION dim           43  value   0.27599318450914229     
 DIRECTION dim           44  value   0.31747411543144965     
 DIRECTION dim           45  value   0.22156977886581541     
 DIRECTION dim           46  value    3.1942056066580084E-003
 DIRECTION dim           47  value   -9.3761339818420279E-003
 DIRECTION dim           48  value   -5.1417247123043564E-003
  Cycle:     16 Energy:      -298.973870  Gnorm:     13.909730  CPU:    0.127
[...]
 DIRECTION dim           19  value   -3.1961548540986456E-003
 DIRECTION dim           20  value    1.9931237456182150E-003
 DIRECTION dim           21  value    3.1537351663154857E-006
 DIRECTION dim           22  value   -3.2936850476637624E-003
 DIRECTION dim           23  value    1.3006916440194496E-003
 DIRECTION dim           24  value   -9.2129002817871585E-005
 DIRECTION dim           25  value   -1.8220550494800882E-003
 DIRECTION dim           26  value   -5.3748913492393513E-004
 DIRECTION dim           27  value    1.1242888107322109E-003
 DIRECTION dim           28  value   -2.9725112073986900E-003
 DIRECTION dim           29  value   -6.0366271023115279E-004
 DIRECTION dim           30  value    9.2988727440897006E-004
 DIRECTION dim           31  value   -1.7458954143830304E-003
 DIRECTION dim           32  value   -1.1526733680455311E-004
 DIRECTION dim           33  value    9.0948713364596132E-004
 DIRECTION dim           34  value   -1.3914296317458562E-003
 DIRECTION dim           35  value   -1.1312317275698922E-004
 DIRECTION dim           36  value    8.6754876772820121E-004
 DIRECTION dim           37  value   -1.5112565215896392E-003
 DIRECTION dim           38  value    2.0047872879412412E-004
 DIRECTION dim           39  value    7.6156498469001871E-004
 DIRECTION dim           40  value   -2.1991889636465943E-003
 DIRECTION dim           41  value    6.8715733235295677E-005
 DIRECTION dim           42  value    6.7853080675330142E-004
 DIRECTION dim           43  value    2.7380632259965719E-003
 DIRECTION dim           44  value    6.2776768995297094E-004
 DIRECTION dim           45  value   -1.3093115397080264E-003
 DIRECTION dim           46  value   -6.0828893063290148E-004
 DIRECTION dim           47  value   -2.2868586549221696E-003
 DIRECTION dim           48  value    4.9724926985117023E-004
  Cycle:     82 Energy:      -470.456681  Gnorm:      0.018822  CPU:    0.479
 ALPHA BEFORE:   0.30506227082995596     
 XC BEFORE:   0.47378369162732648     
  ** Opt : line minimisation
left   ...       0.00000000    -470.45668146
centre ...       0.07626557    -470.45679329
right  ...       0.15253114    -470.45689337

left   ...       0.00000000    -470.45668146
centre ...       0.07626557    -470.45679329
right  ...       0.15253114    -470.45689337
new    ...       0.25253114    -470.45700681

__s__    ...       0.10000000

left   ...       0.07626557    -470.45679329
centre ...       0.15253114    -470.45689337
right  ...       0.25253114    -470.45700681
new    ...       0.35253114    -470.45692527

__s__    ...       0.10000000

left   ...       0.15253114    -470.45689337
centre ...       0.25253114    -470.45700681
right  ...       0.35253114    -470.45692527
new    ...       0.26071052    -470.45701520

__s__    ...      -0.09182061

left   ...       0.25253114    -470.45700681
centre ...       0.26071052    -470.45701520
right  ...       0.35253114    -470.45692527
new    ...       0.28219520    -470.45686161

__s__    ...       0.02148468

left   ...       0.25253114    -470.45700681
centre ...       0.26071052    -470.45701520
right  ...       0.28219520    -470.45686161
new    ...       0.25848156    -470.45701293

__s__    ...      -0.02371364

left   ...       0.25848156    -470.45701293
centre ...       0.26071052    -470.45701520
right  ...       0.28219520    -470.45686161
new    ...       0.26107592    -470.45701557

__s__    ...       0.00259436

 ALPHA AFTER:   0.26107591806492653     
 XC AFTER:   0.47354340346683277     
 SANITY CHECK:   0.26107591806492580     
 DIRECTION dim            1  value   -9.2037657963516440E-004
 DIRECTION dim            2  value    2.7559624727688882E-004
 DIRECTION dim            3  value    2.2573433719853407E-004
 DIRECTION dim            4  value   -2.1667840543389586E-004
 DIRECTION dim            5  value   -6.3526898768909417E-004
 DIRECTION dim            6  value    5.0657265381258095E-004
 DIRECTION dim            7  value   -1.8863295942247581E-003
 DIRECTION dim            8  value    1.0153462499997575E-003
 DIRECTION dim            9  value    1.0075591403467244E-003
 DIRECTION dim           10  value   -1.9839558865921703E-003
 DIRECTION dim           11  value    1.4185823400725060E-003
 DIRECTION dim           12  value    7.2467096352332142E-004
 DIRECTION dim           13  value   -1.0543641282267668E-003
 DIRECTION dim           14  value    9.5115161213300890E-004
 DIRECTION dim           15  value    3.9253765064360669E-004
 DIRECTION dim           16  value   -1.6906379374740999E-003
 DIRECTION dim           17  value    7.2750418067631573E-004
 DIRECTION dim           18  value   -3.8870095236401324E-004
 DIRECTION dim           19  value   -2.1004280809904315E-003
 DIRECTION dim           20  value    1.8715882145601940E-003
 DIRECTION dim           21  value   -5.8890882461095137E-006
 DIRECTION dim           22  value   -2.5764747523751045E-003
 DIRECTION dim           23  value    1.0312174222816559E-003
 DIRECTION dim           24  value   -1.7190732548536501E-004
 DIRECTION dim           25  value   -1.5868629391861437E-003
 DIRECTION dim           26  value    7.4280870025898618E-004
 DIRECTION dim           27  value    1.4336734850256790E-003
 DIRECTION dim           28  value   -1.8047658880238839E-003
 DIRECTION dim           29  value   -6.8453382686676633E-004
 DIRECTION dim           30  value    7.8525794889899435E-004
 DIRECTION dim           31  value   -7.6697774297008201E-004
 DIRECTION dim           32  value   -1.2585883943428131E-003
 DIRECTION dim           33  value    5.1662370428893459E-004
 DIRECTION dim           34  value   -8.3316622535462546E-004
 DIRECTION dim           35  value   -5.3019921133891335E-004
 DIRECTION dim           36  value    6.1236702740268315E-004
 DIRECTION dim           37  value   -1.1538125883594130E-003
 DIRECTION dim           38  value    4.7040233258822852E-004
 DIRECTION dim           39  value    5.3661720719775795E-004
 DIRECTION dim           40  value   -1.6245781923193024E-003
 DIRECTION dim           41  value    9.3532246896309962E-004
 DIRECTION dim           42  value    3.6983955400334239E-004
 DIRECTION dim           43  value    2.8566848726820208E-003
 DIRECTION dim           44  value    7.9174762486006363E-004
 DIRECTION dim           45  value   -1.2831413894732770E-003
 DIRECTION dim           46  value   -1.7462454803464987E-003
 DIRECTION dim           47  value   -9.2031544725043818E-004
 DIRECTION dim           48  value   -4.5093766164006413E-004
  Cycle:     83 Energy:      -470.457016  Gnorm:      0.014651  CPU:    0.487
  ** Hessian calculated **
 ALPHA BEFORE:    1.0000000000000000     
 XC BEFORE:   0.47354340346683277     
  ** Opt : line minimisation
left   ...       0.00000000    -470.45701557
centre ...       0.10000000    -470.45692707
right  ...      -0.10000000    -470.45692033

left   ...      -0.10000000    -470.45692033
centre ...       0.00000000    -470.45701557
right  ...       0.10000000    -470.45692707
new    ...       0.00000000    -470.45701557

__s__    ...       0.10000000

 ALPHA AFTER:    0.0000000000000000     
 XC AFTER:   0.47354340346683277     
 SANITY CHECK:    0.0000000000000000     
 DIRECTION dim            1  value    1.3954537101753940E-003
 DIRECTION dim            2  value    4.8592521556055822E-005
 DIRECTION dim            3  value   -2.0487132764037124E-004
 DIRECTION dim            4  value   -1.4877404661545003E-004
 DIRECTION dim            5  value    2.0763077102673535E-003
 DIRECTION dim            6  value    5.6112506740245058E-004
 DIRECTION dim            7  value   -3.2111103291078576E-004
 DIRECTION dim            8  value    9.9551003716789508E-004
 DIRECTION dim            9  value    7.9570122772806124E-004
 DIRECTION dim           10  value   -7.3283823353700373E-004
 DIRECTION dim           11  value    4.2833587835254018E-004
 DIRECTION dim           12  value    2.9754946125203833E-004
 DIRECTION dim           13  value   -1.4957907350967204E-004
 DIRECTION dim           14  value    1.4029758438788268E-004
 DIRECTION dim           15  value   -4.4691224391457121E-004
 DIRECTION dim           16  value   -5.8691479679833674E-004
 DIRECTION dim           17  value    2.8419793561683442E-004
 DIRECTION dim           18  value   -2.6911212247129380E-004
 DIRECTION dim           19  value   -1.7236790362213687E-003
 DIRECTION dim           20  value    1.3658558925797879E-003
 DIRECTION dim           21  value   -8.1415848669710508E-005
 DIRECTION dim           22  value   -1.2431226249133779E-003
 DIRECTION dim           23  value    2.8910119699937856E-003
 DIRECTION dim           24  value   -4.7505835017630038E-004
 DIRECTION dim           25  value   -3.2154455624061308E-004
 DIRECTION dim           26  value   -4.3151422192157560E-004
 DIRECTION dim           27  value    6.2832383827921554E-004
 DIRECTION dim           28  value   -1.0211416745970897E-003
 DIRECTION dim           29  value   -3.9356525336552834E-004
 DIRECTION dim           30  value    4.7956862766653868E-004
 DIRECTION dim           31  value   -6.6034645808469281E-004
 DIRECTION dim           32  value   -1.1105513018668351E-003
 DIRECTION dim           33  value    3.0402453473924438E-004
 DIRECTION dim           34  value    6.8243765740022745E-005
 DIRECTION dim           35  value   -3.3174598023980967E-006
 DIRECTION dim           36  value    5.7808337567387858E-004
 DIRECTION dim           37  value   -9.1361156344949297E-005
 DIRECTION dim           38  value    2.1607575693206003E-004
 DIRECTION dim           39  value    2.4554489299505127E-004
 DIRECTION dim           40  value   -7.0555399652970428E-004
 DIRECTION dim           41  value    4.1916487528047004E-004
 DIRECTION dim           42  value    1.2337361943000875E-004
 DIRECTION dim           43  value    6.9354199555728992E-004
 DIRECTION dim           44  value    4.0330516017222652E-004
 DIRECTION dim           45  value   -2.9564296533946894E-004
 DIRECTION dim           46  value   -6.1121366928039607E-004
 DIRECTION dim           47  value   -8.1647541519099432E-004
 DIRECTION dim           48  value    5.8942650335621185E-004
  Cycle:     84 Energy:      -470.457016  Gnorm:      0.014651  CPU:    0.493
  ** Hessian calculated **
 ALPHA BEFORE:    1.0000000000000000     
 XC BEFORE:   0.47354340346683277     
  ** Opt : line minimisation
left   ...       0.00000000    -470.45701557
centre ...       0.10000000    -470.45692707
right  ...      -0.10000000    -470.45692033

left   ...      -0.10000000    -470.45692033
centre ...       0.00000000    -470.45701557
right  ...       0.10000000    -470.45692707
new    ...       0.00000000    -470.45701557

__s__    ...       0.10000000

 ALPHA AFTER:    0.0000000000000000     
 XC AFTER:   0.47354340346683277     
 SANITY CHECK:    0.0000000000000000     
 DIRECTION dim            1  value    1.3954537101753940E-003
 DIRECTION dim            2  value    4.8592521556055822E-005
 DIRECTION dim            3  value   -2.0487132764037124E-004
 DIRECTION dim            4  value   -1.4877404661545003E-004
 DIRECTION dim            5  value    2.0763077102673535E-003
 DIRECTION dim            6  value    5.6112506740245058E-004
 DIRECTION dim            7  value   -3.2111103291078576E-004
 DIRECTION dim            8  value    9.9551003716789508E-004
 DIRECTION dim            9  value    7.9570122772806124E-004
 DIRECTION dim           10  value   -7.3283823353700373E-004
 DIRECTION dim           11  value    4.2833587835254018E-004
 DIRECTION dim           12  value    2.9754946125203833E-004
 DIRECTION dim           13  value   -1.4957907350967204E-004
 DIRECTION dim           14  value    1.4029758438788268E-004
 DIRECTION dim           15  value   -4.4691224391457121E-004
 DIRECTION dim           16  value   -5.8691479679833674E-004
 DIRECTION dim           17  value    2.8419793561683442E-004
 DIRECTION dim           18  value   -2.6911212247129380E-004
 DIRECTION dim           19  value   -1.7236790362213687E-003
 DIRECTION dim           20  value    1.3658558925797879E-003
 DIRECTION dim           21  value   -8.1415848669710508E-005
 DIRECTION dim           22  value   -1.2431226249133779E-003
 DIRECTION dim           23  value    2.8910119699937856E-003
 DIRECTION dim           24  value   -4.7505835017630038E-004
 DIRECTION dim           25  value   -3.2154455624061308E-004
 DIRECTION dim           26  value   -4.3151422192157560E-004
 DIRECTION dim           27  value    6.2832383827921554E-004
 DIRECTION dim           28  value   -1.0211416745970897E-003
 DIRECTION dim           29  value   -3.9356525336552834E-004
 DIRECTION dim           30  value    4.7956862766653868E-004
 DIRECTION dim           31  value   -6.6034645808469281E-004
 DIRECTION dim           32  value   -1.1105513018668351E-003
 DIRECTION dim           33  value    3.0402453473924438E-004
 DIRECTION dim           34  value    6.8243765740022745E-005
 DIRECTION dim           35  value   -3.3174598023980967E-006
 DIRECTION dim           36  value    5.7808337567387858E-004
 DIRECTION dim           37  value   -9.1361156344949297E-005
 DIRECTION dim           38  value    2.1607575693206003E-004
 DIRECTION dim           39  value    2.4554489299505127E-004
 DIRECTION dim           40  value   -7.0555399652970428E-004
 DIRECTION dim           41  value    4.1916487528047004E-004
 DIRECTION dim           42  value    1.2337361943000875E-004
 DIRECTION dim           43  value    6.9354199555728992E-004
 DIRECTION dim           44  value    4.0330516017222652E-004
 DIRECTION dim           45  value   -2.9564296533946894E-004
 DIRECTION dim           46  value   -6.1121366928039607E-004
 DIRECTION dim           47  value   -8.1647541519099432E-004
 DIRECTION dim           48  value    5.8942650335621185E-004


  **** Conditions for a minimum have not been satisfied. However ****
  **** no lower point can be found - treat results with caution  ****
  **** unless gradient norm is small (less than 0.1)             ****


  Final energy =    -470.45701557 eV
  Final Gnorm  =       0.01465050

  Components of energy : 

--------------------------------------------------------------------------------
  Interatomic potentials     =          70.42495843 eV    
  Monopole - monopole (real) =        -256.46087884 eV    
  Monopole - monopole (recip)=        -284.42109515 eV    
  Monopole - monopole (total)=        -540.88197400 eV    
--------------------------------------------------------------------------------
  Total lattice energy       =        -470.45701557 eV    
--------------------------------------------------------------------------------
  Total lattice energy       =          -45391.9104 kJ/(mole unit cells)
--------------------------------------------------------------------------------

  Final fractional coordinates of atoms :

--------------------------------------------------------------------------------
   No.  Atomic        x           y          z          Radius
        Label       (Frac)      (Frac)     (Frac)       (Angs) 
--------------------------------------------------------------------------------
     1  O     c     0.500000    0.500000    0.750000    0.000000
     2  O     c     0.473543    0.019102    0.780703    0.000000
     3  O     c     0.084129    0.667661    0.636642    0.000000
     4  O     c     0.814285    0.338976    0.967336    0.000000
     5  O     c     0.770702    0.990583    0.253091    0.000000
     6  O     c     0.368114    0.158779    0.122123    0.000000
     7  O     c     0.361473    0.643294    0.092590    0.000000
     8  O     c     0.569100    0.655606    0.417966    0.000000
     9  O     c     0.269945    0.006575    0.451963    0.000000
    10  Sr    c     0.971781    0.468301    0.277909    0.000000
    11  Sr    c     0.968523    0.836669    0.956774    0.000000
    12  Sr    c     0.893661    0.193848    0.603780    0.000000
    13  Ti    c     0.392458    0.733588    0.620444    0.000000
    14  Ti    c     0.492237    0.331628    0.946075    0.000000
    15  Ti    c     0.463626    0.921312    0.258751    0.000000
--------------------------------------------------------------------------------

  Final Cartesian lattice vectors (Angstroms) :

        5.663554    0.133085    0.080865
        0.133085    5.230927   -0.516701
        0.161731   -1.033402    7.717178


  Final cell parameters and derivatives :

--------------------------------------------------------------------------------
       a            5.665695 Angstrom     dE/de1(xx)    -0.276618 eV/strain
       b            5.258069 Angstrom     dE/de2(yy)    -0.178086 eV/strain
       c            7.787741 Angstrom     dE/de3(zz)    -0.041351 eV/strain
       alpha      103.230154 Degrees      dE/de4(yz)     0.011752 eV/strain
       beta        88.178492 Degrees      dE/de5(xz)     0.031365 eV/strain
       gamma       87.290791 Degrees      dE/de6(xy)    -0.024988 eV/strain
--------------------------------------------------------------------------------

  Primitive cell volume =           225.374893 Angs**3

  Density of cell =      4.056092 g/cm**3

  Non-primitive cell volume =           225.374893 Angs**3


  Final internal derivatives :

--------------------------------------------------------------------------------
   No.  Atomic          a             b             c           Radius
        Label          (eV)          (eV)          (eV)        (eV/Angs)
--------------------------------------------------------------------------------
      1 O     c       0.000000      0.000000      0.000000      0.000000
      2 O     c       0.010951     -0.014153     -0.077380      0.000000
      3 O     c       0.152029      0.039881     -0.084636      0.000000
      4 O     c      -0.120529      0.000707     -0.156474      0.000000
      5 O     c      -0.212811     -0.014676      0.071763      0.000000
      6 O     c       0.006632     -0.026293      0.041424      0.000000
      7 O     c       0.030348      0.077637      0.225842      0.000000
      8 O     c       0.034614     -0.009886      0.173357      0.000000
      9 O     c       0.052981     -0.108595      0.163697      0.000000
     10 Sr    c      -0.001245      0.034186     -0.079164      0.000000
     11 Sr    c       0.001035      0.015816      0.045771      0.000000
     12 Sr    c       0.016058     -0.022884      0.001241      0.000000
     13 Ti    c      -0.189482      0.079897     -0.131477      0.000000
     14 Ti    c       0.104714      0.026634     -0.075370      0.000000
     15 Ti    c       0.051516     -0.000015     -0.178042      0.000000
--------------------------------------------------------------------------------
  Maximum abs         0.212811      0.108595      0.225842      0.000000
--------------------------------------------------------------------------------


  Time to end of optimisation =       0.4987 seconds

 Exiting ------OPTIONS------

  Peak dynamic memory used =       0.60 MB 


  Timing analysis for GULP :

--------------------------------------------------------------------------------
  Task / Subroutine                                          Time (Seconds)
--------------------------------------------------------------------------------
  Calculation of reciprocal space energy and derivatives          0.0641
  Calculation of real space energy and derivatives                0.4167
  Calculation of matrix inversion                                 0.0002
  Global summation overhead                                       0.0003
--------------------------------------------------------------------------------
  Total CPU time                                                  0.4987
--------------------------------------------------------------------------------


  Job Finished at 13:26.50 21st February   2020                               

