********************************************************************************
*                       GENERAL UTILITY LATTICE PROGRAM                        *
*                                 Julian Gale                                  *
*                       Curtin Institute for Computation                       *
*                           Department of Chemistry                            *
*                    Curtin University, Western Australia                      *
********************************************************************************
* Version = 5.1.1 * Last modified =  25th August 2019                          *
********************************************************************************
*  optimise     - perform optimisation run                                     *
*  conp         - constant pressure calculation                                *
*  nosymmetry   - turn off symmetry after initial structure generation         *
*  full         - generate full unit cell when symmetry is removed             *
*  conjugate    - use conjugate gradients minimiser                            *
********************************************************************************
* ASE calculation                                                              *
********************************************************************************


  Job Started  at 13:26.46 21st February   2020                               

  Number of CPUs =     1


  Total number of configurations input =      1

********************************************************************************
*  Input for Configuration =   1                                               *
********************************************************************************

  Formula = O9Sr3Ti3                                                    

  Number of irreducible atoms/shells =      15


  Total number atoms/shells =      15

  Dimensionality = 3               :  Bulk   



  Cartesian lattice vectors (Angstroms) :

        4.000000    0.000000    0.000000
        0.000000    4.000000    0.000000
        0.000000    0.000000    8.000000

  Cell parameters (Angstroms/Degrees):

  a =       4.0000    alpha =  90.0000
  b =       4.0000    beta  =  90.0000
  c =       8.0000    gamma =  90.0000

  Initial cell volume =         128.000000 Angs**3

  Temperature of configuration =  0.000     K 

  Pressure of configuration =         0.000 GPa 

  Fractional coordinates of asymmetric unit :

--------------------------------------------------------------------------------
   No.  Atomic       x           y          z         Charge      Occupancy
        Label      (Frac)      (Frac)     (Frac)        (e)         (Frac)  
--------------------------------------------------------------------------------
      1 O     c    0.000000    0.500000    0.250000    -2.00000    1.000000    
      2 O     c    0.500000 *  0.500000 *  0.250000 *  -2.00000    1.000000    
      3 O     c    0.000000 *  0.500000 *  0.500000 *  -2.00000    1.000000    
      4 O     c    0.500000 *  0.000000 *  0.500000 *  -2.00000    1.000000    
      5 O     c    0.500000 *  0.500000 *  0.750000 *  -2.00000    1.000000    
      6 O     c    0.000000 *  0.000000 *  0.000000 *  -2.00000    1.000000    
      7 O     c    0.000000 *  0.000000 *  0.500000 *  -2.00000    1.000000    
      8 O     c    0.500000 *  0.000000 *  0.000000 *  -2.00000    1.000000    
      9 O     c    0.000000 *  0.500000 *  0.750000 *  -2.00000    1.000000    
     10 Sr    c    0.750000 *  0.250000 *  0.375000 *   2.00000    1.000000    
     11 Sr    c    0.750000 *  0.750000 *  0.875000 *   2.00000    1.000000    
     12 Sr    c    0.750000 *  0.750000 *  0.125000 *   2.00000    1.000000    
     13 Ti    c    0.750000 *  0.250000 *  0.875000 *   4.00000    1.000000    
     14 Ti    c    0.250000 *  0.250000 *  0.125000 *   4.00000    1.000000    
     15 Ti    c    0.250000 *  0.750000 *  0.125000 *   4.00000    1.000000    
--------------------------------------------------------------------------------



********************************************************************************
*  General input information                                                   *
********************************************************************************

  Species output for all configurations : 

--------------------------------------------------------------------------------
  Species    Type    Atomic    Atomic    Charge       Radii (Angs)     Library
                     Number     Mass       (e)     Cova   Ionic  VDW   Symbol
--------------------------------------------------------------------------------
    O        Core        8      16.00  -2.000000   0.730  0.000  1.360          
    Sr       Core       38      87.62   2.000000   1.120  0.000  1.670          
    Ti       Core       22      47.88   4.000000   1.470  0.000  2.190          
--------------------------------------------------------------------------------


  Lattice summation method               =    Ewald          (3-D)
                                         =    Parry          (2-D)
                                         =    Saunders et al (1-D)
  Accuracy factor for lattice sums       =   12.000


  Time limit = Infinity

  Maximum range for interatomic potentials =    100000.000000 Angstroms

  General interatomic potentials :

--------------------------------------------------------------------------------
Atom  Types   Potential      Parameter       Value         Units   Cutoffs(Ang)
  1     2                                                            Min /  Max 
--------------------------------------------------------------------------------
O    c Sr   c Buckingham    Buckingham A     1952.3900    eV        0.000 10.000
                            Buckingham rho  0.33685000    Ang       
                            Buckingham C     19.220000    eV*Ang^6  
--------------------------------------------------------------------------------
O    c Ti   c Buckingham    Buckingham A     4590.7279    eV        0.000 10.000
                            Buckingham rho  0.26100000    Ang       
                            Buckingham C     0.0000000    eV*Ang^6  
--------------------------------------------------------------------------------
O    c O    c Buckingham    Buckingham A     1388.7700    eV        0.000 10.000
                            Buckingham rho  0.36262000    Ang       
                            Buckingham C     175.00000    eV*Ang^6  
--------------------------------------------------------------------------------
 Calling ------OPTIONS------

********************************************************************************
*  Output for configuration   1                                                *
********************************************************************************


  Components of energy : 

--------------------------------------------------------------------------------
  Interatomic potentials     =         252.05488473 eV    
  Monopole - monopole (real) =        -121.78183040 eV    
  Monopole - monopole (recip)=        -176.23510212 eV    
  Monopole - monopole (total)=        -298.01693251 eV    
--------------------------------------------------------------------------------
  Total lattice energy       =         -45.96204778 eV    
--------------------------------------------------------------------------------
  Total lattice energy       =           -4434.6350 kJ/(mole unit cells)
--------------------------------------------------------------------------------


  Number of variables =       48

  Maximum number of calculations  =          1000
  Maximum Hessian update interval =            10
  Maximum step size               =   0.001000000
  Maximum parameter tolerance     =   0.000010000
  Maximum function  tolerance     =   0.000010000
  Maximum gradient  tolerance     =   0.001000000
  Maximum gradient  component     =   0.010000000

  Cell parameters to be optimised using strains

  Conjugate gradient optimiser to be used

  Lower half triangular hessian to be used

  Minimiser to switch to BFGS with exact hessian
  When gradient norm is less than     0.500000

  Switch max step size to       0.10000000 when gnorm is less than    10.000000

  Start of bulk optimisation :

  Cycle:      0 Energy:       -45.962048  Gnorm:     36.523722  CPU:    0.012
 Perform trimming
 ALPHA BEFORE:    1.0000000000000000     
 XC BEFORE:   0.50000000000000000     
  ** Opt : line minimisation
left   ...       0.00000000     -45.96204778
centre ...       0.00100000     -46.47344849
right  ...       0.00200000     -46.99396676

left   ...       0.00000000     -45.96204778
centre ...       0.00100000     -46.47344849
right  ...       0.00200000     -46.99396676
new    ...       0.00300000     -47.51362827

__s__    ...       0.00100000

left   ...       0.00100000     -46.47344849
centre ...       0.00200000     -46.99396676
right  ...       0.00300000     -47.51362827
new    ...       0.00400000     -48.03243371

__s__    ...       0.00100000

left   ...       0.00200000     -46.99396676
centre ...       0.00300000     -47.51362827
right  ...       0.00400000     -48.03243371
new    ...       0.00500000     -48.55038379

__s__    ...       0.00100000

left   ...       0.00300000     -47.51362827
centre ...       0.00400000     -48.03243371
right  ...       0.00500000     -48.55038379
new    ...       0.00600000     -49.06747921

__s__    ...       0.00100000

left   ...       0.00400000     -48.03243371
centre ...       0.00500000     -48.55038379
right  ...       0.00600000     -49.06747921
new    ...       0.00700000     -49.58372068

__s__    ...       0.00100000

left   ...       0.00500000     -48.55038379
centre ...       0.00600000     -49.06747921
right  ...       0.00700000     -49.58372068
new    ...       0.00800000     -50.09910889

__s__    ...       0.00100000

 ALPHA AFTER:    8.0000000000000019E-003
 XC AFTER:   0.49986792290746074     
 SANITY CHECK:    8.0000000000022328E-003
 DIRECTION dim            1  value   -1.6509636567403174E-002
 DIRECTION dim            2  value   -3.3076942582235607E-004
 DIRECTION dim            3  value   -7.8869337607690201E-002
 DIRECTION dim            4  value    6.8184340503957283E-003
 DIRECTION dim            5  value    6.6227869714520753E-003
 DIRECTION dim            6  value   -9.6048413201128852E-003
 DIRECTION dim            7  value   -6.8184340503957283E-003
 DIRECTION dim            8  value   -6.6227869714520710E-003
 DIRECTION dim            9  value   -9.6048413201129269E-003
 DIRECTION dim           10  value   -5.4496109905292139E-003
 DIRECTION dim           11  value   -8.6531488829633182E-003
 DIRECTION dim           12  value    6.0901500990118825E-002
 DIRECTION dim           13  value    1.5140813507536668E-002
 DIRECTION dim           14  value    1.5606705280237741E-002
 DIRECTION dim           15  value    2.7572677937684236E-002
 DIRECTION dim           16  value    6.8184340503957309E-003
 DIRECTION dim           17  value   -6.6227869714520719E-003
 DIRECTION dim           18  value   -9.6048413201129095E-003
 DIRECTION dim           19  value   -1.5140813507536661E-002
 DIRECTION dim           20  value    1.5606705280237741E-002
 DIRECTION dim           21  value    2.7572677937684264E-002
 DIRECTION dim           22  value    5.4496109905292122E-003
 DIRECTION dim           23  value   -8.6531488829633182E-003
 DIRECTION dim           24  value    7.7507495455136979E-002
 DIRECTION dim           25  value   -6.7206105109238997E-003
 DIRECTION dim           26  value   -6.7206105109239031E-003
 DIRECTION dim           27  value    5.9846788820981593E-002
 DIRECTION dim           28  value    2.3294588635054428E-004
 DIRECTION dim           29  value   -2.3294588635053678E-004
 DIRECTION dim           30  value   -8.1269293832197553E-002
 DIRECTION dim           31  value    2.3294588635051515E-004
 DIRECTION dim           32  value   -2.3294588635053637E-004
 DIRECTION dim           33  value    4.4054150107526668E-002
 DIRECTION dim           34  value    5.6371531217289485E-004
 DIRECTION dim           35  value    5.6371531217289854E-004
 DIRECTION dim           36  value  -0.14630557863871513     
 DIRECTION dim           37  value   -5.6371531217290006E-004
 DIRECTION dim           38  value    5.6371531217289887E-004
 DIRECTION dim           39  value    6.6639387431258731E-002
 DIRECTION dim           40  value   -5.6371531217288726E-004
 DIRECTION dim           41  value   -5.6371531217289919E-004
 DIRECTION dim           42  value    6.6639387431258745E-002
 DIRECTION dim           43  value   0.11535151153595628     
 DIRECTION dim           44  value   0.11154815170797851     
 DIRECTION dim           45  value   -2.9418437637588845E-002
 DIRECTION dim           46  value   -4.8481840069290695E-003
 DIRECTION dim           47  value    2.8064460769596021E-003
 DIRECTION dim           48  value    1.8328170557824020E-003
  Cycle:      1 Energy:       -50.099109  Gnorm:     36.055213  CPU:    0.030
 Perform trimming
 ALPHA BEFORE:    8.0000000000000019E-003
 XC BEFORE:   0.49986792290746074     
  ** Opt : line minimisation
left   ...       0.00000000     -50.09910889
centre ...       0.00100000     -50.87061050
right  ...       0.00200000     -51.64020626

left   ...       0.00000000     -50.09910889
centre ...       0.00100000     -50.87061050
right  ...       0.00200000     -51.64020626
new    ...       0.00300000     -52.40789863

__s__    ...       0.00100000

left   ...       0.00100000     -50.87061050
centre ...       0.00200000     -51.64020626
right  ...       0.00300000     -52.40789863
new    ...       0.00400000     -53.17369005

__s__    ...       0.00100000

left   ...       0.00200000     -51.64020626
centre ...       0.00300000     -52.40789863
right  ...       0.00400000     -53.17369005
new    ...       0.00500000     -53.93758300

__s__    ...       0.00100000

left   ...       0.00300000     -52.40789863
centre ...       0.00400000     -53.17369005
right  ...       0.00500000     -53.93758300
new    ...       0.00600000     -54.69957999

__s__    ...       0.00100000

left   ...       0.00400000     -53.17369005
centre ...       0.00500000     -53.93758300
right  ...       0.00600000     -54.69957999
new    ...       0.00700000     -55.45968353

__s__    ...       0.00100000

left   ...       0.00500000     -53.93758300
centre ...       0.00600000     -54.69957999
right  ...       0.00700000     -55.45968353
new    ...       0.00800000     -56.21789615

__s__    ...       0.00100000

 ALPHA AFTER:    8.0000000000000019E-003
 XC AFTER:   0.49966995831512095     
 SANITY CHECK:    7.9999999999980902E-003
 DIRECTION dim            1  value   -2.4745574042478815E-002
 DIRECTION dim            2  value   -9.4069890906819009E-004
 DIRECTION dim            3  value  -0.11764535003482718     
 DIRECTION dim            4  value    1.0422057665428678E-002
 DIRECTION dim            5  value    1.0104966684366418E-002
 DIRECTION dim            6  value   -1.4059309087050578E-002
 DIRECTION dim            7  value   -1.0415486418626304E-002
 DIRECTION dim            8  value   -1.0140118665327023E-002
 DIRECTION dim            9  value   -1.4350999198456536E-002
 DIRECTION dim           10  value   -8.6151394066581229E-003
 DIRECTION dim           11  value   -1.3198633624795586E-002
 DIRECTION dim           12  value    9.1006407527398886E-002
 DIRECTION dim           13  value    2.2578260873495293E-002
 DIRECTION dim           14  value    2.3570112741304598E-002
 DIRECTION dim           15  value    4.1160252602574214E-002
 DIRECTION dim           16  value    1.0413984405196471E-002
 DIRECTION dim           17  value   -1.0107135298539944E-002
 DIRECTION dim           18  value   -1.4327212271826859E-002
 DIRECTION dim           19  value   -2.2577799237614028E-002
 DIRECTION dim           20  value    2.3569630708874287E-002
 DIRECTION dim           21  value    4.1117077803864921E-002
 DIRECTION dim           22  value    8.6663607894948858E-003
 DIRECTION dim           23  value   -1.3215682045451680E-002
 DIRECTION dim           24  value   0.11601810278613178     
 DIRECTION dim           25  value   -1.0412202973259895E-002
 DIRECTION dim           26  value   -9.6973070893764442E-003
 DIRECTION dim           27  value    8.9270261257518982E-002
 DIRECTION dim           28  value    3.2620114048896121E-004
 DIRECTION dim           29  value    5.6216001802491080E-004
 DIRECTION dim           30  value  -0.12115590910227587     
 DIRECTION dim           31  value    4.8311831249585443E-004
 DIRECTION dim           32  value    1.5057238967524286E-005
 DIRECTION dim           33  value    6.5723533323060551E-002
 DIRECTION dim           34  value    8.4902921914144019E-004
 DIRECTION dim           35  value    1.2981752518932132E-004
 DIRECTION dim           36  value  -0.21922338908180050     
 DIRECTION dim           37  value   -9.4744896411058806E-004
 DIRECTION dim           38  value    6.0886625487088732E-004
 DIRECTION dim           39  value    9.9969007594395032E-002
 DIRECTION dim           40  value   -9.4533717238613670E-004
 DIRECTION dim           41  value   -5.8236067910406300E-004
 DIRECTION dim           42  value   0.10010251306855573     
 DIRECTION dim           43  value   0.17398566737876497     
 DIRECTION dim           44  value   0.16843009089902800     
 DIRECTION dim           45  value   -4.3653016864195655E-002
 DIRECTION dim           46  value   -7.3012378873451656E-003
 DIRECTION dim           47  value    4.2905607345443990E-003
 DIRECTION dim           48  value    2.8703285675412797E-003
  Cycle:      2 Energy:       -56.217896  Gnorm:     35.362150  CPU:    0.040
 Perform trimming
 ALPHA BEFORE:    8.0000000000000019E-003
 XC BEFORE:   0.49966995831512095     
  ** Opt : line minimisation
left   ...       0.00000000     -56.21789615
centre ...       0.00100000     -57.35173280
right  ...       0.00200000     -58.48136374

left   ...       0.00000000     -56.21789615
centre ...       0.00100000     -57.35173280
right  ...       0.00200000     -58.48136374
new    ...       0.00300000     -59.60679773

__s__    ...       0.00100000

left   ...       0.00100000     -57.35173280
centre ...       0.00200000     -58.48136374
right  ...       0.00300000     -59.60679773
new    ...       0.00400000     -60.72804365

__s__    ...       0.00100000

left   ...       0.00200000     -58.48136374
centre ...       0.00300000     -59.60679773
right  ...       0.00400000     -60.72804365
new    ...       0.00500000     -61.84511044

__s__    ...       0.00100000

left   ...       0.00300000     -59.60679773
centre ...       0.00400000     -60.72804365
right  ...       0.00500000     -61.84511044
new    ...       0.00600000     -62.95800716

__s__    ...       0.00100000

left   ...       0.00400000     -60.72804365
centre ...       0.00500000     -61.84511044
right  ...       0.00600000     -62.95800716
new    ...       0.00700000     -64.06674295

__s__    ...       0.00100000

left   ...       0.00500000     -61.84511044
centre ...       0.00600000     -62.95800716
right  ...       0.00700000     -64.06674295
new    ...       0.00800000     -65.17130783

__s__    ...       0.00100000

 ALPHA AFTER:    8.0000000000000019E-003
 XC AFTER:   0.49937343592048578     
 SANITY CHECK:    7.9999999999983955E-003
 DIRECTION dim            1  value   -3.7065299329404826E-002
 DIRECTION dim            2  value   -2.4240613739817535E-003
 DIRECTION dim            3  value  -0.17492461957672473     
 DIRECTION dim            4  value    1.6076973490679006E-002
 DIRECTION dim            5  value    1.5544829628651096E-002
 DIRECTION dim            6  value   -2.0293578131496307E-002
 DIRECTION dim            7  value   -1.6052030412049716E-002
 DIRECTION dim            8  value   -1.5682665851814537E-002
 DIRECTION dim            9  value   -2.1402628921157640E-002
 DIRECTION dim           10  value   -1.3958132918244515E-002
 DIRECTION dim           11  value   -2.0284189552482533E-002
 DIRECTION dim           12  value   0.13568852929509698     
 DIRECTION dim           13  value    3.3585134969505916E-002
 DIRECTION dim           14  value    3.5707594695425386E-002
 DIRECTION dim           15  value    6.1315891023078592E-002
 DIRECTION dim           16  value    1.6045442367899149E-002
 DIRECTION dim           17  value   -1.5553713421620756E-002
 DIRECTION dim           18  value   -2.1315751672535264E-002
 DIRECTION dim           19  value   -3.3583737785072315E-002
 DIRECTION dim           20  value    3.5705138183135143E-002
 DIRECTION dim           21  value    6.1153235906900354E-002
 DIRECTION dim           22  value    1.4160762834046678E-002
 DIRECTION dim           23  value   -2.0347387881215741E-002
 DIRECTION dim           24  value   0.17343784621032313     
 DIRECTION dim           25  value   -1.6366648704866045E-002
 DIRECTION dim           26  value   -1.3673157926870298E-002
 DIRECTION dim           27  value   0.13276947071416939     
 DIRECTION dim           28  value    4.3307744497002553E-004
 DIRECTION dim           29  value    2.9334220297280778E-003
 DIRECTION dim           30  value  -0.18003587012155819     
 DIRECTION dim           31  value    1.0350851530258030E-003
 DIRECTION dim           32  value    8.6378506804842383E-004
 DIRECTION dim           33  value    9.7764121933683626E-002
 DIRECTION dim           34  value    1.2782030511619136E-003
 DIRECTION dim           35  value   -1.4539486013467166E-003
 DIRECTION dim           36  value  -0.32822814352504748     
 DIRECTION dim           37  value   -1.6658236602479731E-003
 DIRECTION dim           38  value    3.5896727313628520E-004
 DIRECTION dim           39  value   0.14992420827795419     
 DIRECTION dim           40  value   -1.6564232880980621E-003
 DIRECTION dim           41  value   -2.5855789075472478E-004
 DIRECTION dim           42  value   0.15043921889760617     
 DIRECTION dim           43  value   0.26318945149052886     
 DIRECTION dim           44  value   0.25520686521729147     
 DIRECTION dim           45  value   -6.4436559599214474E-002
 DIRECTION dim           46  value   -1.1027600205777940E-002
 DIRECTION dim           47  value    6.6242973327016036E-003
 DIRECTION dim           48  value    4.5829312129599111E-003
  Cycle:      3 Energy:       -65.171308  Gnorm:     34.346623  CPU:    0.048
 Perform trimming
 ALPHA BEFORE:    8.0000000000000019E-003
 XC BEFORE:   0.49937343592048578     
  ** Opt : line minimisation
left   ...       0.00000000     -65.17130783
centre ...       0.00100000     -66.82051875
right  ...       0.00200000     -68.46044730

left   ...       0.00000000     -65.17130783
centre ...       0.00100000     -66.82051875
right  ...       0.00200000     -68.46044730
new    ...       0.00300000     -70.09127951

__s__    ...       0.00100000

left   ...       0.00100000     -66.82051875
centre ...       0.00200000     -68.46044730
right  ...       0.00300000     -70.09127951
new    ...       0.00400000     -71.71285587

__s__    ...       0.00100000

left   ...       0.00200000     -68.46044730
centre ...       0.00300000     -70.09127951
right  ...       0.00400000     -71.71285587
new    ...       0.00500000     -73.32545937

__s__    ...       0.00100000

left   ...       0.00300000     -70.09127951
centre ...       0.00400000     -71.71285587
right  ...       0.00500000     -73.32545937
new    ...       0.00600000     -74.92912318

__s__    ...       0.00100000

left   ...       0.00400000     -71.71285587
centre ...       0.00500000     -73.32545937
right  ...       0.00600000     -74.92912318
new    ...       0.00700000     -76.52374659

__s__    ...       0.00100000

left   ...       0.00500000     -73.32545937
centre ...       0.00600000     -74.92912318
right  ...       0.00700000     -76.52374659
new    ...       0.00800000     -78.10944104

__s__    ...       0.00100000

 ALPHA AFTER:    8.0000000000000019E-003
 XC AFTER:   0.49892995349471647     
 SANITY CHECK:    8.0000000000037975E-003
 DIRECTION dim            1  value   -5.5435303221136649E-002
 DIRECTION dim            2  value   -5.9630119602108204E-003
 DIRECTION dim            3  value  -0.25868920692380304     
 DIRECTION dim            4  value    2.5136392835432161E-002
 DIRECTION dim            5  value    2.4198792799259107E-002
 DIRECTION dim            6  value   -2.8604119603807883E-002
 DIRECTION dim            7  value   -2.5063865173841848E-002
 DIRECTION dim            8  value   -2.4619033121817471E-002
 DIRECTION dim            9  value   -3.1832839570546168E-002
 DIRECTION dim           10  value   -2.3420728720901014E-002
 DIRECTION dim           11  value   -3.1496140745670524E-002
 DIRECTION dim           12  value   0.20153204223842591     
 DIRECTION dim           13  value    4.9794518627242004E-002
 DIRECTION dim           14  value    5.4326130395373970E-002
 DIRECTION dim           15  value    9.1092122424615299E-002
 DIRECTION dim           16  value    2.5040691712943448E-002
 DIRECTION dim           17  value   -2.4227467818992127E-002
 DIRECTION dim           18  value   -3.1595630436463684E-002
 DIRECTION dim           19  value   -4.9791937565649258E-002
 DIRECTION dim           20  value    5.4316205442501264E-002
 DIRECTION dim           21  value    9.0625004518989916E-002
 DIRECTION dim           22  value    2.4045658411589073E-002
 DIRECTION dim           23  value   -3.1672528922561276E-002
 DIRECTION dim           24  value   0.25867977447046608     
 DIRECTION dim           25  value   -2.6245217304403816E-002
 DIRECTION dim           26  value   -1.8506274366521417E-002
 DIRECTION dim           27  value   0.19654447353163795     
 DIRECTION dim           28  value    5.0900132209080393E-004
 DIRECTION dim           29  value    9.2454537579980903E-003
 DIRECTION dim           30  value  -0.26616788955516058     
 DIRECTION dim           31  value    2.2843647644685918E-003
 DIRECTION dim           32  value    3.2642388474838028E-003
 DIRECTION dim           33  value   0.14473098808194373     
 DIRECTION dim           34  value    1.9163651277426261E-003
 DIRECTION dim           35  value   -6.0348582149632422E-003
 DIRECTION dim           36  value  -0.49069276428127545     
 DIRECTION dim           37  value   -3.1046293843948768E-003
 DIRECTION dim           38  value   -7.8648992535491642E-004
 DIRECTION dim           39  value   0.22462852478872697     
 DIRECTION dim           40  value   -3.0706896630445140E-003
 DIRECTION dim           41  value    1.0771067188062133E-003
 DIRECTION dim           42  value   0.22616210486233945     
 DIRECTION dim           43  value   0.39997990643818737     
 DIRECTION dim           44  value   0.38883537255866857     
 DIRECTION dim           45  value   -9.4356444827046360E-002
 DIRECTION dim           46  value   -1.6747236481856456E-002
 DIRECTION dim           47  value    1.0383704697653059E-002
 DIRECTION dim           48  value    7.5166284976028062E-003
  Cycle:      4 Energy:       -78.109441  Gnorm:     32.881378  CPU:    0.055
 Perform trimming
 ALPHA BEFORE:    8.0000000000000019E-003
 XC BEFORE:   0.49892995349471647     
  ** Opt : line minimisation
left   ...       0.00000000     -78.10944104
centre ...       0.00100000     -80.47202271
right  ...       0.00200000     -82.81505786

left   ...       0.00000000     -78.10944104
centre ...       0.00100000     -80.47202271
right  ...       0.00200000     -82.81505786
new    ...       0.00300000     -85.13874324

__s__    ...       0.00100000

left   ...       0.00100000     -80.47202271
centre ...       0.00200000     -82.81505786
right  ...       0.00300000     -85.13874324
new    ...       0.00400000     -87.44312402

__s__    ...       0.00100000

left   ...       0.00200000     -82.81505786
centre ...       0.00300000     -85.13874324
right  ...       0.00400000     -87.44312402
new    ...       0.00500000     -89.72832422

__s__    ...       0.00100000

left   ...       0.00300000     -85.13874324
centre ...       0.00400000     -87.44312402
right  ...       0.00500000     -89.72832422
new    ...       0.00600000     -91.99448900

__s__    ...       0.00100000

left   ...       0.00400000     -87.44312402
centre ...       0.00500000     -89.72832422
right  ...       0.00600000     -91.99448900
new    ...       0.00700000     -94.24170779

__s__    ...       0.00100000

left   ...       0.00500000     -89.72832422
centre ...       0.00600000     -91.99448900
right  ...       0.00700000     -94.24170779
new    ...       0.00800000     -96.47012961

__s__    ...       0.00100000

 ALPHA AFTER:    8.0000000000000019E-003
 XC AFTER:   0.49826907532175291     
 SANITY CHECK:    7.9999999999991345E-003
 DIRECTION dim            1  value   -8.2609771620454409E-002
 DIRECTION dim            2  value   -1.4351298507539766E-002
 DIRECTION dim            3  value  -0.37890392285397961     
 DIRECTION dim            4  value    4.0075857764184097E-002
 DIRECTION dim            5  value    3.8309971894819356E-002
 DIRECTION dim            6  value   -3.8598975849302122E-002
 DIRECTION dim            7  value   -3.9883360758282881E-002
 DIRECTION dim            8  value   -3.9503423632310776E-002
 DIRECTION dim            9  value   -4.7163648506892822E-002
 DIRECTION dim           10  value   -4.1257222829502616E-002
 DIRECTION dim           11  value   -4.9553546927017085E-002
 DIRECTION dim           12  value   0.29727854377124280     
 DIRECTION dim           13  value    7.3539649513647512E-002
 DIRECTION dim           14  value    8.3104828191616437E-002
 DIRECTION dim           15  value   0.13490302702396048     
 DIRECTION dim           16  value    3.9805010998080682E-002
 DIRECTION dim           17  value   -3.8397240067000758E-002
 DIRECTION dim           18  value   -4.6598782578328127E-002
 DIRECTION dim           19  value   -7.3538306684423058E-002
 DIRECTION dim           20  value    8.3067114972509890E-002
 DIRECTION dim           21  value   0.13369005554596883     
 DIRECTION dim           22  value    4.3055062297381874E-002
 DIRECTION dim           23  value   -4.9988004010926700E-002
 DIRECTION dim           24  value   0.38420565015725006     
 DIRECTION dim           25  value   -4.3222040817885977E-002
 DIRECTION dim           26  value   -2.3094779877942184E-002
 DIRECTION dim           27  value   0.28871884879497367     
 DIRECTION dim           28  value    3.9709436024974661E-004
 DIRECTION dim           29  value    2.5277225666092282E-002
 DIRECTION dim           30  value  -0.39026929357453688     
 DIRECTION dim           31  value    5.1864164318130507E-003
 DIRECTION dim           32  value    9.5952106646321270E-003
 DIRECTION dim           33  value   0.21252557523635429     
 DIRECTION dim           34  value    2.8300562593620905E-003
 DIRECTION dim           35  value   -1.8265993501833826E-002
 DIRECTION dim           36  value  -0.73134850930366868     
 DIRECTION dim           37  value   -6.2228035305245313E-003
 DIRECTION dim           38  value   -4.4385834904345075E-003
 DIRECTION dim           39  value   0.33565135007090402     
 DIRECTION dim           40  value   -6.1027466542563193E-003
 DIRECTION dim           41  value    5.2011966511161176E-003
 DIRECTION dim           42  value   0.33986402030160451     
 DIRECTION dim           43  value   0.61237349077675007     
 DIRECTION dim           44  value   0.59767374605723200     
 DIRECTION dim           45  value  -0.13653100188722192     
 DIRECTION dim           46  value   -2.5701439913653101E-002
 DIRECTION dim           47  value    1.6667094154909530E-002
 DIRECTION dim           48  value    1.2785376171191375E-002
  Cycle:      5 Energy:       -96.470130  Gnorm:     30.825492  CPU:    0.062
 ALPHA BEFORE:    8.0000000000000019E-003
 XC BEFORE:   0.49826907532175291     
  ** Opt : line minimisation
left   ...       0.00000000     -96.47012961
centre ...       0.00100000     -98.51383448
right  ...       0.00200000    -100.54230603

left   ...       0.00000000     -96.47012961
centre ...       0.00100000     -98.51383448
right  ...       0.00200000    -100.54230603
new    ...       0.00300000    -102.55562849

__s__    ...       0.00100000

left   ...       0.00100000     -98.51383448
centre ...       0.00200000    -100.54230603
right  ...       0.00300000    -102.55562849
new    ...       0.00400000    -104.55394480

__s__    ...       0.00100000

left   ...       0.00200000    -100.54230603
centre ...       0.00300000    -102.55562849
right  ...       0.00400000    -104.55394480
new    ...       0.00500000    -106.53732210

__s__    ...       0.00100000

left   ...       0.00300000    -102.55562849
centre ...       0.00400000    -104.55394480
right  ...       0.00500000    -106.53732210
new    ...       0.00600000    -108.50588620

__s__    ...       0.00100000

left   ...       0.00400000    -104.55394480
centre ...       0.00500000    -106.53732210
right  ...       0.00600000    -108.50588620
new    ...       0.00700000    -110.45976388

__s__    ...       0.00100000

left   ...       0.00500000    -106.53732210
centre ...       0.00600000    -108.50588620
right  ...       0.00700000    -110.45976388
new    ...       0.00800000    -112.39881198

__s__    ...       0.00100000

 ALPHA AFTER:    8.0000000000000019E-003
 XC AFTER:   0.49766822503802555     
 SANITY CHECK:    7.9999999999988379E-003
 DIRECTION dim            1  value   -7.5106285465931039E-002
 DIRECTION dim            2  value   -2.1132795356862993E-002
 DIRECTION dim            3  value  -0.33560304858133183     
 DIRECTION dim            4  value    4.0462693834483601E-002
 DIRECTION dim            5  value    3.8221242177254464E-002
 DIRECTION dim            6  value   -2.9269137518922728E-002
 DIRECTION dim            7  value   -4.0155921382958634E-002
 DIRECTION dim            8  value   -4.0307561592442365E-002
 DIRECTION dim            9  value   -4.2814451895633085E-002
 DIRECTION dim           10  value   -4.7767217488789419E-002
 DIRECTION dim           11  value   -4.8734245230873205E-002
 DIRECTION dim           12  value   0.26667095426180443     
 DIRECTION dim           13  value    6.6639749100113888E-002
 DIRECTION dim           14  value    7.8769222362196939E-002
 DIRECTION dim           15  value   0.12276273235842139     
 DIRECTION dim           16  value    3.9988228463976795E-002
 DIRECTION dim           17  value   -3.8385929984650860E-002
 DIRECTION dim           18  value   -4.2081725620407802E-002
 DIRECTION dim           19  value   -6.6649361594123060E-002
 DIRECTION dim           20  value    7.8680987833783911E-002
 DIRECTION dim           21  value   0.12090985727491430     
 DIRECTION dim           22  value    5.0937395936107521E-002
 DIRECTION dim           23  value   -4.9335082402846474E-002
 DIRECTION dim           24  value   0.34879539196290688     
 DIRECTION dim           25  value   -4.5356893600746268E-002
 DIRECTION dim           26  value   -1.4475887134308640E-002
 DIRECTION dim           27  value   0.25769835463716734     
 DIRECTION dim           28  value   -2.5207722152057534E-004
 DIRECTION dim           29  value    4.0284552728708165E-002
 DIRECTION dim           30  value  -0.34760175624308204     
 DIRECTION dim           31  value    7.4654019559688648E-003
 DIRECTION dim           32  value    1.5976362003747791E-002
 DIRECTION dim           33  value   0.18937804812723052     
 DIRECTION dim           34  value    2.4575851787376635E-003
 DIRECTION dim           35  value   -3.0910017625769941E-002
 DIRECTION dim           36  value  -0.66717661140113427     
 DIRECTION dim           37  value   -8.3919660932959498E-003
 DIRECTION dim           38  value   -9.2394552783180445E-003
 DIRECTION dim           39  value   0.30663967963083089     
 DIRECTION dim           40  value   -8.1146017434628095E-003
 DIRECTION dim           41  value    1.0419013868657012E-002
 DIRECTION dim           42  value   0.31367765354200866     
 DIRECTION dim           43  value   0.58432756406444308     
 DIRECTION dim           44  value   0.57390974980406984     
 DIRECTION dim           45  value  -0.11960609777237027     
 DIRECTION dim           46  value   -2.4782053428629335E-002
 DIRECTION dim           47  value    1.7113703782991048E-002
 DIRECTION dim           48  value    1.4052229106754913E-002
  Cycle:      6 Energy:      -112.398812  Gnorm:     29.097639  CPU:    0.072
 ALPHA BEFORE:    8.0000000000000019E-003
 XC BEFORE:   0.49766822503802555     
  ** Opt : line minimisation
left   ...       0.00000000    -112.39881198
centre ...       0.00100000    -114.22964975
right  ...       0.00200000    -116.04811517

left   ...       0.00000000    -112.39881198
centre ...       0.00100000    -114.22964975
right  ...       0.00200000    -116.04811517
new    ...       0.00300000    -117.85416305

__s__    ...       0.00100000

left   ...       0.00100000    -114.22964975
centre ...       0.00200000    -116.04811517
right  ...       0.00300000    -117.85416305
new    ...       0.00400000    -119.64821699

__s__    ...       0.00100000

left   ...       0.00200000    -116.04811517
centre ...       0.00300000    -117.85416305
right  ...       0.00400000    -119.64821699
new    ...       0.00500000    -121.42966974

__s__    ...       0.00100000

left   ...       0.00300000    -117.85416305
centre ...       0.00400000    -119.64821699
right  ...       0.00500000    -121.42966974
new    ...       0.00600000    -123.19896575

__s__    ...       0.00100000

left   ...       0.00400000    -119.64821699
centre ...       0.00500000    -121.42966974
right  ...       0.00600000    -123.19896575
new    ...       0.00700000    -124.95637344

__s__    ...       0.00100000

left   ...       0.00500000    -121.42966974
centre ...       0.00600000    -123.19896575
right  ...       0.00700000    -124.95637344
new    ...       0.00800000    -126.70146246

__s__    ...       0.00100000

 ALPHA AFTER:    8.0000000000000019E-003
 XC AFTER:   0.49710898040881446     
 SANITY CHECK:    8.0000000000004165E-003
 DIRECTION dim            1  value   -6.9905578651382166E-002
 DIRECTION dim            2  value   -2.6606139263382421E-002
 DIRECTION dim            3  value  -0.30592772051708567     
 DIRECTION dim            4  value    4.1267572830126900E-002
 DIRECTION dim            5  value    3.8517876928128386E-002
 DIRECTION dim            6  value   -2.2358435322536376E-002
 DIRECTION dim            7  value   -4.0848943692014139E-002
 DIRECTION dim            8  value   -4.1535662868257071E-002
 DIRECTION dim            9  value   -4.0200922331553333E-002
 DIRECTION dim           10  value   -5.3972997642151757E-002
 DIRECTION dim           11  value   -4.8359434896208656E-002
 DIRECTION dim           12  value   0.24644983118881725     
 DIRECTION dim           13  value    6.2566435295812489E-002
 DIRECTION dim           14  value    7.6164470206089588E-002
 DIRECTION dim           15  value   0.11575269704231841     
 DIRECTION dim           16  value    4.0569189362920352E-002
 DIRECTION dim           17  value   -3.8765837014951135E-002
 DIRECTION dim           18  value   -3.9459700588745615E-002
 DIRECTION dim           19  value   -6.2594127960083581E-002
 DIRECTION dim           20  value    7.6008015264212594E-002
 DIRECTION dim           21  value   0.11342003523611345     
 DIRECTION dim           22  value    5.8511126431907132E-002
 DIRECTION dim           23  value   -4.9054168443073386E-002
 DIRECTION dim           24  value   0.32624083837915080     
 DIRECTION dim           25  value   -4.7408784880997271E-002
 DIRECTION dim           26  value   -7.9163655754261215E-003
 DIRECTION dim           27  value   0.23726340110913924     
 DIRECTION dim           28  value   -8.4051027784067759E-004
 DIRECTION dim           29  value    5.2573684364253595E-002
 DIRECTION dim           30  value  -0.31986915706586511     
 DIRECTION dim           31  value    9.3709226802817566E-003
 DIRECTION dim           32  value    2.1330177022347237E-002
 DIRECTION dim           33  value   0.17385691353883551     
 DIRECTION dim           34  value    2.1246736309518338E-003
 DIRECTION dim           35  value   -4.1607431294758475E-002
 DIRECTION dim           36  value  -0.62573083061486490     
 DIRECTION dim           37  value   -1.0554189152606813E-002
 DIRECTION dim           38  value   -1.3393159411476230E-002
 DIRECTION dim           39  value   0.28688367305336659     
 DIRECTION dim           40  value   -1.0042473340217984E-002
 DIRECTION dim           41  value    1.4912846338592250E-002
 DIRECTION dim           42  value   0.29670791210052722     
 DIRECTION dim           43  value   0.57104471228938303     
 DIRECTION dim           44  value   0.56406712480476218     
 DIRECTION dim           45  value  -0.10907132311305821     
 DIRECTION dim           46  value   -2.4550412423216497E-002
 DIRECTION dim           47  value    1.7844194226134483E-002
 DIRECTION dim           48  value    1.5260217997809061E-002
  Cycle:      7 Energy:      -126.701462  Gnorm:     27.609994  CPU:    0.079
 ALPHA BEFORE:    8.0000000000000019E-003
 XC BEFORE:   0.49710898040881446     
  ** Opt : line minimisation
left   ...       0.00000000    -126.70146246
centre ...       0.00100000    -128.35430427
right  ...       0.00200000    -129.99666555

left   ...       0.00000000    -126.70146246
centre ...       0.00100000    -128.35430427
right  ...       0.00200000    -129.99666555
new    ...       0.00300000    -131.62914868

__s__    ...       0.00100000

left   ...       0.00100000    -128.35430427
centre ...       0.00200000    -129.99666555
right  ...       0.00300000    -131.62914868
new    ...       0.00400000    -133.25183329

__s__    ...       0.00100000

left   ...       0.00200000    -129.99666555
centre ...       0.00300000    -131.62914868
right  ...       0.00400000    -133.25183329
new    ...       0.00500000    -134.86409801

__s__    ...       0.00100000

left   ...       0.00300000    -131.62914868
centre ...       0.00400000    -133.25183329
right  ...       0.00500000    -134.86409801
new    ...       0.00600000    -136.46619781

__s__    ...       0.00100000

left   ...       0.00400000    -133.25183329
centre ...       0.00500000    -134.86409801
right  ...       0.00600000    -136.46619781
new    ...       0.00700000    -138.05891179

__s__    ...       0.00100000

left   ...       0.00500000    -134.86409801
centre ...       0.00600000    -136.46619781
right  ...       0.00700000    -138.05891179
new    ...       0.00800000    -139.64161894

__s__    ...       0.00100000

 ALPHA AFTER:    8.0000000000000019E-003
 XC AFTER:   0.49659031130257780     
 SANITY CHECK:    8.0000000000015701E-003
 DIRECTION dim            1  value   -6.4833638279569492E-002
 DIRECTION dim            2  value   -3.1203320319256607E-002
 DIRECTION dim            3  value  -0.27879352525615186     
 DIRECTION dim            4  value    4.1790095246134612E-002
 DIRECTION dim            5  value    3.8511963644714077E-002
 DIRECTION dim            6  value   -1.6171862609153650E-002
 DIRECTION dim            7  value   -4.1257073516254843E-002
 DIRECTION dim            8  value   -4.2513745164045456E-002
 DIRECTION dim            9  value   -3.7938248265815037E-002
 DIRECTION dim           10  value   -5.9452592291839017E-002
 DIRECTION dim           11  value   -4.7602606760084737E-002
 DIRECTION dim           12  value   0.22828688836721645     
 DIRECTION dim           13  value    5.9060538887059172E-002
 DIRECTION dim           14  value    7.3405484315267472E-002
 DIRECTION dim           15  value   0.10981976211721091     
 DIRECTION dim           16  value    4.0844228888040450E-002
 DIRECTION dim           17  value   -3.8849388476437353E-002
 DIRECTION dim           18  value   -3.7303945749496491E-002
 DIRECTION dim           19  value   -5.9109441069398867E-002
 DIRECTION dim           20  value    7.3165674379609802E-002
 DIRECTION dim           21  value   0.10710442686253570     
 DIRECTION dim           22  value    6.5344414887584315E-002
 DIRECTION dim           23  value   -4.8356076527293020E-002
 DIRECTION dim           24  value   0.30615072178557257     
 DIRECTION dim           25  value   -4.8873191065967096E-002
 DIRECTION dim           26  value   -2.0903816512429247E-003
 DIRECTION dim           27  value   0.21877361517384783     
 DIRECTION dim           28  value   -1.4050797491010148E-003
 DIRECTION dim           29  value    6.3116462248353919E-002
 DIRECTION dim           30  value  -0.29533226616245739     
 DIRECTION dim           31  value    1.0992382120513681E-002
 DIRECTION dim           32  value    2.6040506552211982E-002
 DIRECTION dim           33  value   0.15971343943642502     
 DIRECTION dim           34  value    1.7961751635165973E-003
 DIRECTION dim           35  value   -5.1003352903675886E-002
 DIRECTION dim           36  value  -0.58763141108022410     
 DIRECTION dim           37  value   -1.2690657227560838E-002
 DIRECTION dim           38  value   -1.7154392246790665E-002
 DIRECTION dim           39  value   0.26771245850865261     
 DIRECTION dim           40  value   -1.1866012327735797E-002
 DIRECTION dim           41  value    1.8957609903527274E-002
 DIRECTION dim           42  value   0.28038713928656900     
 DIRECTION dim           43  value   0.55793611120068065     
 DIRECTION dim           44  value   0.55420971463370539     
 DIRECTION dim           45  value  -0.10035738845126496     
 DIRECTION dim           46  value   -2.4335375924117584E-002
 DIRECTION dim           47  value    1.8555045205863433E-002
 DIRECTION dim           48  value    1.6289450408727587E-002
  Cycle:      8 Energy:      -139.641619  Gnorm:     26.330673  CPU:    0.086
 ALPHA BEFORE:    8.0000000000000019E-003
 XC BEFORE:   0.49659031130257780     
  ** Opt : line minimisation
left   ...       0.00000000    -139.64161894
centre ...       0.00100000    -141.14889296
right  ...       0.00200000    -142.64743272

left   ...       0.00000000    -139.64161894
centre ...       0.00100000    -141.14889296
right  ...       0.00200000    -142.64743272
new    ...       0.00300000    -144.13800354

__s__    ...       0.00100000

left   ...       0.00100000    -141.14889296
centre ...       0.00200000    -142.64743272
right  ...       0.00300000    -144.13800354
new    ...       0.00400000    -145.61977716

__s__    ...       0.00100000

left   ...       0.00200000    -142.64743272
centre ...       0.00300000    -144.13800354
right  ...       0.00400000    -145.61977716
new    ...       0.00500000    -147.09355805

__s__    ...       0.00100000

left   ...       0.00300000    -144.13800354
centre ...       0.00400000    -145.61977716
right  ...       0.00500000    -147.09355805
new    ...       0.00600000    -148.55884807

__s__    ...       0.00100000

left   ...       0.00400000    -145.61977716
centre ...       0.00500000    -147.09355805
right  ...       0.00600000    -148.55884807
new    ...       0.00700000    -150.01610161

__s__    ...       0.00100000

left   ...       0.00500000    -147.09355805
centre ...       0.00600000    -148.55884807
right  ...       0.00700000    -150.01610161
new    ...       0.00800000    -151.46518947

__s__    ...       0.00100000

 ALPHA AFTER:    8.0000000000000019E-003
 XC AFTER:   0.49610921306825917     
 SANITY CHECK:    8.0000000000009334E-003
 DIRECTION dim            1  value   -6.0137279289822133E-002
 DIRECTION dim            2  value   -3.5020511916453015E-002
 DIRECTION dim            3  value  -0.25500325664285001     
 DIRECTION dim            4  value    4.2137407375831368E-002
 DIRECTION dim            5  value    3.8315915643555395E-002
 DIRECTION dim            6  value   -1.0708897621573095E-002
 DIRECTION dim            7  value   -4.1485298117717152E-002
 DIRECTION dim            8  value   -4.3338404058970999E-002
 DIRECTION dim            9  value   -3.6083960383055863E-002
 DIRECTION dim           10  value   -6.4149468489904785E-002
 DIRECTION dim           11  value   -4.6712619366925522E-002
 DIRECTION dim           12  value   0.21282640059251470     
 DIRECTION dim           13  value    5.6154592052424727E-002
 DIRECTION dim           14  value    7.0730668084136875E-002
 DIRECTION dim           15  value   0.10503749230980614     
 DIRECTION dim           16  value    4.0924210318673236E-002
 DIRECTION dim           17  value   -3.8744836847355621E-002
 DIRECTION dim           18  value   -3.5649082049549682E-002
 DIRECTION dim           19  value   -5.6227458308572481E-002
 DIRECTION dim           20  value    7.0396342775803325E-002
 DIRECTION dim           21  value   0.10202469083110977     
 DIRECTION dim           22  value    7.1321146226186682E-002
 DIRECTION dim           23  value   -4.7516808473640086E-002
 DIRECTION dim           24  value   0.28937192585725124     
 DIRECTION dim           25  value   -4.9924028568707500E-002
 DIRECTION dim           26  value    3.0268718588297135E-003
 DIRECTION dim           27  value   0.20266059025832206     
 DIRECTION dim           28  value   -1.9289176647055556E-003
 DIRECTION dim           29  value    7.2042099733178169E-002
 DIRECTION dim           30  value  -0.27453032222411622     
 DIRECTION dim           31  value    1.2332159287922455E-002
 DIRECTION dim           32  value    3.0133838544724040E-002
 DIRECTION dim           33  value   0.14731867248829783     
 DIRECTION dim           34  value    1.5201995426015339E-003
 DIRECTION dim           35  value   -5.9013254757654600E-002
 DIRECTION dim           36  value  -0.55457294690990200     
 DIRECTION dim           37  value   -1.4757881423114339E-002
 DIRECTION dim           38  value   -2.0474860191814711E-002
 DIRECTION dim           39  value   0.25002144316818470     
 DIRECTION dim           40  value   -1.3542991344535814E-002
 DIRECTION dim           41  value    2.2508902763395337E-002
 DIRECTION dim           42  value   0.26560587219741305     
 DIRECTION dim           43  value   0.54611749752882377     
 DIRECTION dim           44  value   0.54542539944890622     
 DIRECTION dim           45  value   -9.3476418064287109E-002
 DIRECTION dim           46  value   -2.4140806526009279E-002
 DIRECTION dim           47  value    1.9269528488058706E-002
 DIRECTION dim           48  value    1.7169038460525497E-002
  Cycle:      9 Energy:      -151.465189  Gnorm:     25.224604  CPU:    0.093
 ALPHA BEFORE:    8.0000000000000019E-003
 XC BEFORE:   0.49610921306825917     
  ** Opt : line minimisation
left   ...       0.00000000    -151.46518947
centre ...       0.00100000    -152.90859086
right  ...       0.00200000    -154.34454155

left   ...       0.00000000    -151.46518947
centre ...       0.00100000    -152.90859086
right  ...       0.00200000    -154.34454155
new    ...       0.00300000    -155.77257753

__s__    ...       0.00100000

left   ...       0.00100000    -152.90859086
centre ...       0.00200000    -154.34454155
right  ...       0.00300000    -155.77257753
new    ...       0.00400000    -157.19258607

__s__    ...       0.00100000

left   ...       0.00200000    -154.34454155
centre ...       0.00300000    -155.77257753
right  ...       0.00400000    -157.19258607
new    ...       0.00500000    -158.60497771

__s__    ...       0.00100000

left   ...       0.00300000    -155.77257753
centre ...       0.00400000    -157.19258607
right  ...       0.00500000    -158.60497771
new    ...       0.00600000    -160.00981295

__s__    ...       0.00100000

left   ...       0.00400000    -157.19258607
centre ...       0.00500000    -158.60497771
right  ...       0.00600000    -160.00981295
new    ...       0.00700000    -161.40750155

__s__    ...       0.00100000

left   ...       0.00500000    -158.60497771
centre ...       0.00600000    -160.00981295
right  ...       0.00700000    -161.40750155
new    ...       0.00800000    -162.79792776

__s__    ...       0.00100000

 ALPHA AFTER:    8.0000000000000019E-003
 XC AFTER:   0.49564370080394138     
 SANITY CHECK:    7.9999999999996584E-003
 DIRECTION dim            1  value   -5.8189033039726376E-002
 DIRECTION dim            2  value   -3.9547083497878895E-002
 DIRECTION dim            3  value  -0.24421403493668872     
 DIRECTION dim            4  value    4.3992541462948474E-002
 DIRECTION dim            5  value    3.9467274392846363E-002
 DIRECTION dim            6  value   -6.2511587747918528E-003
 DIRECTION dim            7  value   -4.3189087607681052E-002
 DIRECTION dim            8  value   -4.5735077983324560E-002
 DIRECTION dim            9  value   -3.5979066093065531E-002
 DIRECTION dim           10  value   -7.0552857320742263E-002
 DIRECTION dim           11  value   -4.7638434562962073E-002
 DIRECTION dim           12  value   0.20815167241538471     
 DIRECTION dim           13  value    5.5925803064502344E-002
 DIRECTION dim           14  value    7.0939425765876085E-002
 DIRECTION dim           15  value   0.10529015318851911     
 DIRECTION dim           16  value    4.2445535631909184E-002
 DIRECTION dim           17  value   -4.0006477493909502E-002
 DIRECTION dim           18  value   -3.5803460440810876E-002
 DIRECTION dim           19  value   -5.6026306602259164E-002
 DIRECTION dim           20  value    7.0487759400553046E-002
 DIRECTION dim           21  value   0.10192179612830565     
 DIRECTION dim           22  value    7.9173281084175304E-002
 DIRECTION dim           23  value   -4.8544888509997074E-002
 DIRECTION dim           24  value   0.28694663754432653     
 DIRECTION dim           25  value   -5.2609830056866508E-002
 DIRECTION dim           26  value    7.6737788964548002E-003
 DIRECTION dim           27  value   0.19651586107129587     
 DIRECTION dim           28  value   -2.4811692957755925E-003
 DIRECTION dim           29  value    8.2382814434155946E-002
 DIRECTION dim           30  value  -0.26768071878915806     
 DIRECTION dim           31  value    1.3895684055568527E-002
 DIRECTION dim           32  value    3.4859763197251939E-002
 DIRECTION dim           33  value   0.14222153656267539     
 DIRECTION dim           34  value    1.3889447860277451E-003
 DIRECTION dim           35  value   -6.7962991743312509E-002
 DIRECTION dim           36  value  -0.54788063139167842     
 DIRECTION dim           37  value   -1.7309135137292386E-002
 DIRECTION dim           38  value   -2.4160525966832297E-002
 DIRECTION dim           39  value   0.24355396438069374     
 DIRECTION dim           40  value   -1.5582944264382682E-002
 DIRECTION dim           41  value    2.6459002145408198E-002
 DIRECTION dim           42  value   0.26272442853321215     
 DIRECTION dim           43  value   0.55676556063215887     
 DIRECTION dim           44  value   0.55889601241928644     
 DIRECTION dim           45  value   -9.1738067881788482E-002
 DIRECTION dim           46  value   -2.4884619921939532E-002
 DIRECTION dim           47  value    2.0744169532733652E-002
 DIRECTION dim           48  value    1.8594508227029998E-002
  Cycle:     10 Energy:      -162.797928  Gnorm:     24.222189  CPU:    0.100
 ALPHA BEFORE:    8.0000000000000019E-003
 XC BEFORE:   0.49564370080394138     
  ** Opt : line minimisation
left   ...       0.00000000    -162.79792776
centre ...       0.00100000    -164.07423247
right  ...       0.00200000    -165.34416438

left   ...       0.00000000    -162.79792776
centre ...       0.00100000    -164.07423247
right  ...       0.00200000    -165.34416438
new    ...       0.00300000    -166.60846624

__s__    ...       0.00100000

left   ...       0.00100000    -164.07423247
centre ...       0.00200000    -165.34416438
right  ...       0.00300000    -166.60846624
new    ...       0.00400000    -167.86681097

__s__    ...       0.00100000

left   ...       0.00200000    -165.34416438
centre ...       0.00300000    -166.60846624
right  ...       0.00400000    -167.86681097
new    ...       0.00500000    -169.11927909

__s__    ...       0.00100000

left   ...       0.00300000    -166.60846624
centre ...       0.00400000    -167.86681097
right  ...       0.00500000    -169.11927909
new    ...       0.00600000    -170.36589309

__s__    ...       0.00100000

left   ...       0.00400000    -167.86681097
centre ...       0.00500000    -169.11927909
right  ...       0.00600000    -170.36589309
new    ...       0.00700000    -171.60669431

__s__    ...       0.00100000

left   ...       0.00500000    -169.11927909
centre ...       0.00600000    -170.36589309
right  ...       0.00700000    -171.60669431
new    ...       0.00800000    -172.84172369

__s__    ...       0.00100000

 ALPHA AFTER:    8.0000000000000019E-003
 XC AFTER:   0.49523209968090720     
 SANITY CHECK:    8.0000000000014348E-003
 DIRECTION dim            1  value   -5.1450140379262974E-002
 DIRECTION dim            2  value   -4.0682684723945692E-002
 DIRECTION dim            3  value  -0.21405108510369789     
 DIRECTION dim            4  value    4.2210877948301216E-002
 DIRECTION dim            5  value    3.7272668512362980E-002
 DIRECTION dim            6  value   -1.1970110519020139E-003
 DIRECTION dim            7  value   -4.1299599447681322E-002
 DIRECTION dim            8  value   -4.4422873687806848E-002
 DIRECTION dim            9  value   -3.3091127777443705E-002
 DIRECTION dim           10  value   -7.0919798845410206E-002
 DIRECTION dim           11  value   -4.4697086245661710E-002
 DIRECTION dim           12  value   0.18741411750768672     
 DIRECTION dim           13  value    5.1307778850478138E-002
 DIRECTION dim           14  value    6.5254925390665769E-002
 DIRECTION dim           15  value    9.7396843654095538E-002
 DIRECTION dim           16  value    4.0403590584363158E-002
 DIRECTION dim           17  value   -3.7887707106878291E-002
 DIRECTION dim           18  value   -3.3280316584102278E-002
 DIRECTION dim           19  value   -5.1429303322721838E-002
 DIRECTION dim           20  value    6.4701787173917724E-002
 DIRECTION dim           21  value    9.3964074020511199E-002
 DIRECTION dim           22  value    8.0284719901830753E-002
 DIRECTION dim           23  value   -4.5683908776488938E-002
 DIRECTION dim           24  value   0.26255781704801395     
 DIRECTION dim           25  value   -5.0889748828957478E-002
 DIRECTION dim           26  value    1.1731494886307923E-002
 DIRECTION dim           27  value   0.17465503015694953     
 DIRECTION dim           28  value   -2.8367432341455090E-003
 DIRECTION dim           29  value    8.5727017961176433E-002
 DIRECTION dim           30  value  -0.24000877597536294     
 DIRECTION dim           31  value    1.4229899704419617E-002
 DIRECTION dim           32  value    3.6707172511087703E-002
 DIRECTION dim           33  value   0.12574728750595143     
 DIRECTION dim           34  value    1.2394954493643421E-003
 DIRECTION dim           35  value   -7.0842908972078053E-002
 DIRECTION dim           36  value  -0.49803033320846241     
 DIRECTION dim           37  value   -1.8592778094380046E-002
 DIRECTION dim           38  value   -2.5817785840960061E-002
 DIRECTION dim           39  value   0.21691863262964833     
 DIRECTION dim           40  value   -1.6369289073692419E-002
 DIRECTION dim           41  value    2.8174073046522474E-002
 DIRECTION dim           42  value   0.23855305043844710     
 DIRECTION dim           43  value   0.52225399381719428     
 DIRECTION dim           44  value   0.52721608271912856     
 DIRECTION dim           45  value   -8.3207558719576358E-002
 DIRECTION dim           46  value   -2.3577198385572345E-002
 DIRECTION dim           47  value    2.0635280991959590E-002
 DIRECTION dim           48  value    1.8496931066039668E-002
  Cycle:     11 Energy:      -172.841724  Gnorm:     23.381859  CPU:    0.107
 ALPHA BEFORE:    8.0000000000000019E-003
 XC BEFORE:   0.49523209968090720     
  ** Opt : line minimisation
left   ...       0.00000000    -172.84172369
centre ...       0.00100000    -174.03630076
right  ...       0.00200000    -175.22529807

left   ...       0.00000000    -172.84172369
centre ...       0.00100000    -174.03630076
right  ...       0.00200000    -175.22529807
new    ...       0.00300000    -176.40910051

__s__    ...       0.00100000

left   ...       0.00100000    -174.03630076
centre ...       0.00200000    -175.22529807
right  ...       0.00300000    -176.40910051
new    ...       0.00400000    -177.58791635

__s__    ...       0.00100000

left   ...       0.00200000    -175.22529807
centre ...       0.00300000    -176.40910051
right  ...       0.00400000    -177.58791635
new    ...       0.00500000    -178.76125431

__s__    ...       0.00100000

left   ...       0.00300000    -176.40910051
centre ...       0.00400000    -177.58791635
right  ...       0.00500000    -178.76125431
new    ...       0.00600000    -179.93002239

__s__    ...       0.00100000

left   ...       0.00400000    -177.58791635
centre ...       0.00500000    -178.76125431
right  ...       0.00600000    -179.93002239
new    ...       0.00700000    -181.09372757

__s__    ...       0.00100000

left   ...       0.00500000    -178.76125431
centre ...       0.00600000    -179.93002239
right  ...       0.00700000    -181.09372757
new    ...       0.00800000    -182.25240205

__s__    ...       0.00100000

 ALPHA AFTER:    8.0000000000000019E-003
 XC AFTER:   0.49484771333441824     
 SANITY CHECK:    7.9999999999999707E-003
 DIRECTION dim            1  value   -4.8048293311120552E-002
 DIRECTION dim            2  value   -4.2766794052323129E-002
 DIRECTION dim            3  value  -0.19877357184758968     
 DIRECTION dim            4  value    4.2222776590181609E-002
 DIRECTION dim            5  value    3.6722921614669515E-002
 DIRECTION dim            6  value    2.7603292389532202E-003
 DIRECTION dim            7  value   -4.1170898832386907E-002
 DIRECTION dim            8  value   -4.4943850237197797E-002
 DIRECTION dim            9  value   -3.2143857150933722E-002
 DIRECTION dim           10  value   -7.3209389270662686E-002
 DIRECTION dim           11  value   -4.4046133851121196E-002
 DIRECTION dim           12  value   0.17876782938996774     
 DIRECTION dim           13  value    4.9652558969554263E-002
 DIRECTION dim           14  value    6.3025022459746866E-002
 DIRECTION dim           15  value    9.5021655063146665E-002
 DIRECTION dim           16  value    4.0099940590812115E-002
 DIRECTION dim           17  value   -3.7429199509411579E-002
 DIRECTION dim           18  value   -3.2714044695435485E-002
 DIRECTION dim           19  value   -4.9797735351848456E-002
 DIRECTION dim           20  value    6.2353729268921944E-002
 DIRECTION dim           21  value    9.1439621366797397E-002
 DIRECTION dim           22  value    8.3428817454222606E-002
 DIRECTION dim           23  value   -4.5197928502514619E-002
 DIRECTION dim           24  value   0.25418305161144844     
 DIRECTION dim           25  value   -5.1195904206618022E-002
 DIRECTION dim           26  value    1.5289288459134930E-002
 DIRECTION dim           27  value   0.16411204560914211     
 DIRECTION dim           28  value   -3.2044387730356468E-003
 DIRECTION dim           29  value    9.0894155158616999E-002
 DIRECTION dim           30  value  -0.22787365764858686     
 DIRECTION dim           31  value    1.4854546305923786E-002
 DIRECTION dim           32  value    3.9307388908145578E-002
 DIRECTION dim           33  value   0.11760082810938448     
 DIRECTION dim           34  value    1.2910792542069852E-003
 DIRECTION dim           35  value   -7.4776142087640163E-002
 DIRECTION dim           36  value  -0.47819111059711433     
 DIRECTION dim           37  value   -2.0316959347044989E-002
 DIRECTION dim           38  value   -2.7837957312985970E-002
 DIRECTION dim           39  value   0.20360152622381994     
 DIRECTION dim           40  value   -1.7503808616148756E-002
 DIRECTION dim           41  value    3.0306816326979794E-002
 DIRECTION dim           42  value   0.22833492814926204     
 DIRECTION dim           43  value   0.51365090192836949     
 DIRECTION dim           44  value   0.52114088482742904     
 DIRECTION dim           45  value   -8.0087121444968476E-002
 DIRECTION dim           46  value   -2.3355175540709799E-002
 DIRECTION dim           47  value    2.1358786139866276E-002
 DIRECTION dim           48  value    1.9036883143885980E-002
  Cycle:     12 Energy:      -182.252402  Gnorm:     22.630775  CPU:    0.114
 ALPHA BEFORE:    8.0000000000000019E-003
 XC BEFORE:   0.49484771333441824     
  ** Opt : line minimisation
left   ...       0.00000000    -182.25240205
centre ...       0.00100000    -183.37163140
right  ...       0.00200000    -184.48631479

left   ...       0.00000000    -182.25240205
centre ...       0.00100000    -183.37163140
right  ...       0.00200000    -184.48631479
new    ...       0.00300000    -185.59647860

__s__    ...       0.00100000

left   ...       0.00100000    -183.37163140
centre ...       0.00200000    -184.48631479
right  ...       0.00300000    -185.59647860
new    ...       0.00400000    -186.70228557

__s__    ...       0.00100000

left   ...       0.00200000    -184.48631479
centre ...       0.00300000    -185.59647860
right  ...       0.00400000    -186.70228557
new    ...       0.00500000    -187.80343065

__s__    ...       0.00100000

left   ...       0.00300000    -185.59647860
centre ...       0.00400000    -186.70228557
right  ...       0.00500000    -187.80343065
new    ...       0.00600000    -188.90007567

__s__    ...       0.00100000

left   ...       0.00400000    -186.70228557
centre ...       0.00500000    -187.80343065
right  ...       0.00600000    -188.90007567
new    ...       0.00700000    -189.99230325

__s__    ...       0.00100000

left   ...       0.00500000    -187.80343065
centre ...       0.00600000    -188.90007567
right  ...       0.00700000    -189.99230325
new    ...       0.00800000    -191.08015703

__s__    ...       0.00100000

 ALPHA AFTER:    8.0000000000000019E-003
 XC AFTER:   0.49448948873463117     
 SANITY CHECK:    7.9999999999954031E-003
 DIRECTION dim            1  value   -4.4778074973409659E-002
 DIRECTION dim            2  value   -4.4278955373839260E-002
 DIRECTION dim            3  value  -0.18443750871039113     
 DIRECTION dim            4  value    4.1964480820748377E-002
 DIRECTION dim            5  value    3.5921912044862787E-002
 DIRECTION dim            6  value    6.4515559156525419E-003
 DIRECTION dim            7  value   -4.0767585264034602E-002
 DIRECTION dim            8  value   -4.5191301750955502E-002
 DIRECTION dim            9  value   -3.1232399778649059E-002
 DIRECTION dim           10  value   -7.4477377641734177E-002
 DIRECTION dim           11  value   -4.3359655126970160E-002
 DIRECTION dim           12  value   0.17076429354698527     
 DIRECTION dim           13  value    4.8010996709940426E-002
 DIRECTION dim           14  value    6.0610553237069618E-002
 DIRECTION dim           15  value    9.2685799404168059E-002
 DIRECTION dim           16  value    3.9521486376039146E-002
 DIRECTION dim           17  value   -3.6715904279527076E-002
 DIRECTION dim           18  value   -3.2219612394131215E-002
 DIRECTION dim           19  value   -4.8178524966690471E-002
 DIRECTION dim           20  value    5.9818078349862761E-002
 DIRECTION dim           21  value    8.8994377253529794E-002
 DIRECTION dim           22  value    8.5346663497585240E-002
 DIRECTION dim           23  value   -4.4733376468564949E-002
 DIRECTION dim           24  value   0.24646782043768370     
 DIRECTION dim           25  value   -5.1127525888906171E-002
 DIRECTION dim           26  value    1.8466607570676249E-002
 DIRECTION dim           27  value   0.15394142674295758     
 DIRECTION dim           28  value   -3.5084747104676003E-003
 DIRECTION dim           29  value    9.4804655212216107E-002
 DIRECTION dim           30  value  -0.21647833675527806     
 DIRECTION dim           31  value    1.5238138100965488E-002
 DIRECTION dim           32  value    4.1389009795887499E-002
 DIRECTION dim           33  value   0.10980126966821341     
 DIRECTION dim           34  value    1.4702795731461596E-003
 DIRECTION dim           35  value   -7.7214767891647940E-002
 DIRECTION dim           36  value  -0.45903509720425978     
 DIRECTION dim           37  value   -2.1842310585892134E-002
 DIRECTION dim           38  value   -2.9380237961851484E-002
 DIRECTION dim           39  value   0.19030821053972061     
 DIRECTION dim           40  value   -1.8396096743185562E-002
 DIRECTION dim           41  value    3.1926814464133604E-002
 DIRECTION dim           42  value   0.21812730211574061     
 DIRECTION dim           43  value   0.50324932211324624     
 DIRECTION dim           44  value   0.51314642538573119     
 DIRECTION dim           45  value   -7.7291957389823543E-002
 DIRECTION dim           46  value   -2.3016137877633278E-002
 DIRECTION dim           47  value    2.1987301113379820E-002
 DIRECTION dim           48  value    1.9410450037635443E-002
  Cycle:     13 Energy:      -191.080157  Gnorm:     21.953918  CPU:    0.121
 ALPHA BEFORE:    8.0000000000000019E-003
 XC BEFORE:   0.49448948873463117     
  ** Opt : line minimisation
left   ...       0.00000000    -191.08015703
centre ...       0.00100000    -192.13356126
right  ...       0.00200000    -193.18276887

left   ...       0.00000000    -191.08015703
centre ...       0.00100000    -192.13356126
right  ...       0.00200000    -193.18276887
new    ...       0.00300000    -194.22797468

__s__    ...       0.00100000

left   ...       0.00100000    -192.13356126
centre ...       0.00200000    -193.18276887
right  ...       0.00300000    -194.22797468
new    ...       0.00400000    -195.26919841

__s__    ...       0.00100000

left   ...       0.00200000    -193.18276887
centre ...       0.00300000    -194.22797468
right  ...       0.00400000    -195.26919841
new    ...       0.00500000    -196.30640184

__s__    ...       0.00100000

left   ...       0.00300000    -194.22797468
centre ...       0.00400000    -195.26919841
right  ...       0.00500000    -196.30640184
new    ...       0.00600000    -197.33964241

__s__    ...       0.00100000

left   ...       0.00400000    -195.26919841
centre ...       0.00500000    -196.30640184
right  ...       0.00600000    -197.33964241
new    ...       0.00700000    -198.36899639

__s__    ...       0.00100000

left   ...       0.00500000    -196.30640184
centre ...       0.00600000    -197.33964241
right  ...       0.00700000    -198.36899639
new    ...       0.00800000    -199.39432838

__s__    ...       0.00100000

 ALPHA AFTER:    8.0000000000000019E-003
 XC AFTER:   0.49415453492651240     
 SANITY CHECK:    7.9999999999980625E-003
 DIRECTION dim            1  value   -4.1869226014855800E-002
 DIRECTION dim            2  value   -4.5400693094260716E-002
 DIRECTION dim            3  value  -0.17180960106825088     
 DIRECTION dim            4  value    4.1606826746806894E-002
 DIRECTION dim            5  value    3.5031759136297670E-002
 DIRECTION dim            6  value    9.8765416673123729E-003
 DIRECTION dim            7  value   -4.0258887936619657E-002
 DIRECTION dim            8  value   -4.5335492232577893E-002
 DIRECTION dim            9  value   -3.0463864853771672E-002
 DIRECTION dim           10  value   -7.5008286931989715E-002
 DIRECTION dim           11  value   -4.2836019495320066E-002
 DIRECTION dim           12  value   0.16398901680390848     
 DIRECTION dim           13  value    4.6560465171571995E-002
 DIRECTION dim           14  value    5.8284670779936952E-002
 DIRECTION dim           15  value    9.0708681203672786E-002
 DIRECTION dim           16  value    3.8838656643599645E-002
 DIRECTION dim           17  value   -3.5911086395320979E-002
 DIRECTION dim           18  value   -3.1892470322822483E-002
 DIRECTION dim           19  value   -4.6749263933978366E-002
 DIRECTION dim           20  value    5.7368308650239348E-002
 DIRECTION dim           21  value    8.6931099134943249E-002
 DIRECTION dim           22  value    8.6343926182119474E-002
 DIRECTION dim           23  value   -4.4491096349107043E-002
 DIRECTION dim           24  value   0.24020333176868516     
 DIRECTION dim           25  value   -5.0904525016884201E-002
 DIRECTION dim           26  value    2.1306557851659191E-002
 DIRECTION dim           27  value   0.14477534175199272     
 DIRECTION dim           28  value   -3.7547854467164317E-003
 DIRECTION dim           29  value    9.7825976833010572E-002
 DIRECTION dim           30  value  -0.20660852848141847     
 DIRECTION dim           31  value    1.5446742053692447E-002
 DIRECTION dim           32  value    4.3096139117757289E-002
 DIRECTION dim           33  value   0.10280818992862707     
 DIRECTION dim           34  value    1.7833722198049198E-003
 DIRECTION dim           35  value   -7.8449822904957320E-002
 DIRECTION dim           36  value  -0.44225535683442230     
 DIRECTION dim           37  value   -2.3213773867745719E-002
 DIRECTION dim           38  value   -3.0536226673423456E-002
 DIRECTION dim           39  value   0.17792914882774721     
 DIRECTION dim           40  value   -1.9098491670652376E-002
 DIRECTION dim           41  value    3.3140077420744159E-002
 DIRECTION dim           42  value   0.20886220826533730     
 DIRECTION dim           43  value   0.49304405627668085     
 DIRECTION dim           44  value   0.50522561390553344     
 DIRECTION dim           45  value   -7.5029173377220565E-002
 DIRECTION dim           46  value   -2.2665479883411093E-002
 DIRECTION dim           47  value    2.2587121101733498E-002
 DIRECTION dim           48  value    1.9688875969904131E-002
  Cycle:     14 Energy:      -199.394328  Gnorm:     21.336185  CPU:    0.128
 ALPHA BEFORE:    8.0000000000000019E-003
 XC BEFORE:   0.49415453492651240     
  ** Opt : line minimisation
left   ...       0.00000000    -199.39432838
centre ...       0.00100000    -200.38876349
right  ...       0.00200000    -201.37955676

left   ...       0.00000000    -199.39432838
centre ...       0.00100000    -200.38876349
right  ...       0.00200000    -201.37955676
new    ...       0.00300000    -202.36678078

__s__    ...       0.00100000

left   ...       0.00100000    -200.38876349
centre ...       0.00200000    -201.37955676
right  ...       0.00300000    -202.36678078
new    ...       0.00400000    -203.35041161

__s__    ...       0.00100000

left   ...       0.00200000    -201.37955676
centre ...       0.00300000    -202.36678078
right  ...       0.00400000    -203.35041161
new    ...       0.00500000    -204.33044430

__s__    ...       0.00100000

left   ...       0.00300000    -202.36678078
centre ...       0.00400000    -203.35041161
right  ...       0.00500000    -204.33044430
new    ...       0.00600000    -205.30693118

__s__    ...       0.00100000

left   ...       0.00400000    -203.35041161
centre ...       0.00500000    -204.33044430
right  ...       0.00600000    -205.30693118
new    ...       0.00700000    -206.27984743

__s__    ...       0.00100000

left   ...       0.00500000    -204.33044430
centre ...       0.00600000    -205.30693118
right  ...       0.00700000    -206.27984743
new    ...       0.00800000    -207.24922552

__s__    ...       0.00100000

 ALPHA AFTER:    8.0000000000000019E-003
 XC AFTER:   0.49384019985930827     
 SANITY CHECK:    7.9999999999995040E-003
 DIRECTION dim            1  value   -3.9291883400518694E-002
 DIRECTION dim            2  value   -4.6177970997387248E-002
 DIRECTION dim            3  value  -0.16059699834564220     
 DIRECTION dim            4  value    4.1153216291777997E-002
 DIRECTION dim            5  value    3.4059805340624270E-002
 DIRECTION dim            6  value    1.3081777911747623E-002
 DIRECTION dim            7  value   -3.9649160036481355E-002
 DIRECTION dim            8  value   -4.5376673572576104E-002
 DIRECTION dim            9  value   -2.9803437234295665E-002
 DIRECTION dim           10  value   -7.4855436902485334E-002
 DIRECTION dim           11  value   -4.2472599093371317E-002
 DIRECTION dim           12  value   0.15816508630874090     
 DIRECTION dim           13  value    4.5257970784607318E-002
 DIRECTION dim           14  value    5.6029237789423432E-002
 DIRECTION dim           15  value    8.9005072000213695E-002
 DIRECTION dim           16  value    3.8058212370512608E-002
 DIRECTION dim           17  value   -3.5021988062687338E-002
 DIRECTION dim           18  value   -3.1690101387582499E-002
 DIRECTION dim           19  value   -4.5466764948751737E-002
 DIRECTION dim           20  value    5.4987845054604308E-002
 DIRECTION dim           21  value    8.5158406263631234E-002
 DIRECTION dim           22  value    8.6476640346387454E-002
 DIRECTION dim           23  value   -4.4463775612821110E-002
 DIRECTION dim           24  value   0.23502736698487200     
 DIRECTION dim           25  value   -5.0545387468259984E-002
 DIRECTION dim           26  value    2.3847525630188292E-002
 DIRECTION dim           27  value   0.13642345288016416     
 DIRECTION dim           28  value   -3.9435727710295035E-003
 DIRECTION dim           29  value   0.10005304831091721     
 DIRECTION dim           30  value  -0.19795456798295247     
 DIRECTION dim           31  value    1.5500525682404459E-002
 DIRECTION dim           32  value    4.4462931630306776E-002
 DIRECTION dim           33  value    9.6480105746872422E-002
 DIRECTION dim           34  value    2.2253017306222171E-003
 DIRECTION dim           35  value   -7.8573306757453318E-002
 DIRECTION dim           36  value  -0.42730929318683064     
 DIRECTION dim           37  value   -2.4429952132486388E-002
 DIRECTION dim           38  value   -3.1331864735070103E-002
 DIRECTION dim           39  value   0.16631496290749095     
 DIRECTION dim           40  value   -1.9620027318669540E-002
 DIRECTION dim           41  value    3.3978417234165809E-002
 DIRECTION dim           42  value   0.20037951099107471     
 DIRECTION dim           43  value   0.48287181814616315     
 DIRECTION dim           44  value   0.49722407806845287     
 DIRECTION dim           45  value   -7.3148286827920697E-002
 DIRECTION dim           46  value   -2.2314233431790141E-002
 DIRECTION dim           47  value    2.3151127371404626E-002
 DIRECTION dim           48  value    1.9878298142060543E-002
  Cycle:     15 Energy:      -207.249226  Gnorm:     20.765631  CPU:    0.135
 ALPHA BEFORE:    8.0000000000000019E-003
 XC BEFORE:   0.49384019985930827     
  ** Opt : line minimisation
left   ...       0.00000000    -207.24922552
centre ...       0.00100000    -208.19047758
right  ...       0.00200000    -209.12846393

left   ...       0.00000000    -207.24922552
centre ...       0.00100000    -208.19047758
right  ...       0.00200000    -209.12846393
new    ...       0.00300000    -210.06317600

__s__    ...       0.00100000

left   ...       0.00100000    -208.19047758
centre ...       0.00200000    -209.12846393
right  ...       0.00300000    -210.06317600
new    ...       0.00400000    -210.99464343

__s__    ...       0.00100000

left   ...       0.00200000    -209.12846393
centre ...       0.00300000    -210.06317600
right  ...       0.00400000    -210.99464343
new    ...       0.00500000    -211.92283792

__s__    ...       0.00100000

left   ...       0.00300000    -210.06317600
centre ...       0.00400000    -210.99464343
right  ...       0.00500000    -211.92283792
[...]
new    ...       0.50000000    -472.53016543

__s__    ...       0.10000000

 ALPHA AFTER:   0.50000000000000000     
 XC AFTER:   0.40111177395533648     
 SANITY CHECK:   0.50000000002536704     
 DIRECTION dim            1  value   -4.8461705984587579E-006
 DIRECTION dim            2  value    3.0985857009936918E-004
 DIRECTION dim            3  value    1.0259209908458722E-004
 DIRECTION dim            4  value   -8.3032176311141143E-005
 DIRECTION dim            5  value    2.6571553058934213E-004
 DIRECTION dim            6  value    6.1694997522270700E-005
 DIRECTION dim            7  value   -6.3056113451328546E-005
 DIRECTION dim            8  value    3.0194409082531711E-004
 DIRECTION dim            9  value    9.7192562583380232E-005
 DIRECTION dim           10  value   -8.0808925922053740E-005
 DIRECTION dim           11  value    9.8265633008925342E-006
 DIRECTION dim           12  value   -4.8291068409461380E-005
 DIRECTION dim           13  value    1.2394613653880337E-004
 DIRECTION dim           14  value    1.0969097285392185E-004
 DIRECTION dim           15  value   -1.5097709382379447E-005
 DIRECTION dim           16  value   -4.3682044497908890E-005
 DIRECTION dim           17  value    5.4063113702385717E-005
 DIRECTION dim           18  value   -8.3871230485337098E-005
 DIRECTION dim           19  value    2.7797214005480337E-005
 DIRECTION dim           20  value    4.3884170698511556E-004
 DIRECTION dim           21  value    1.2318439348034185E-006
 DIRECTION dim           22  value   -9.5494562389372055E-005
 DIRECTION dim           23  value    2.4042937559695096E-004
 DIRECTION dim           24  value    2.8816639244273993E-005
 DIRECTION dim           25  value   -6.2051328407418982E-005
 DIRECTION dim           26  value    1.8787350590039126E-004
 DIRECTION dim           27  value    2.3670294016891680E-005
 DIRECTION dim           28  value    1.9660060431928042E-005
 DIRECTION dim           29  value    2.9061055297428860E-004
 DIRECTION dim           30  value    3.3053063193053123E-005
 DIRECTION dim           31  value   -9.3378811845960540E-006
 DIRECTION dim           32  value    6.9214148478051324E-005
 DIRECTION dim           33  value   -1.6581434325143429E-005
 DIRECTION dim           34  value   -5.1724658649183596E-005
 DIRECTION dim           35  value    1.6631149009187663E-004
 DIRECTION dim           36  value   -1.0572389849078488E-005
 DIRECTION dim           37  value   -9.8910739606131574E-006
 DIRECTION dim           38  value    2.2862811011542788E-004
 DIRECTION dim           39  value    9.6731189316611100E-006
 DIRECTION dim           40  value   -7.5783182395298027E-006
 DIRECTION dim           41  value    1.7833683092157853E-004
 DIRECTION dim           42  value    3.5473742343755257E-005
 DIRECTION dim           43  value    3.9281204826070864E-005
 DIRECTION dim           44  value   -9.9337209060691381E-005
 DIRECTION dim           45  value   -6.0917150437662541E-006
 DIRECTION dim           46  value   -6.7390444602085945E-005
 DIRECTION dim           47  value   -2.0830090631098659E-004
 DIRECTION dim           48  value   -6.3711504057677160E-004
  Cycle:    126 Energy:      -472.530165  Gnorm:      0.000933  CPU:    0.809
 ALPHA BEFORE:    1.0014974516568027     
 XC BEFORE:   0.40111177395533648     
  ** Opt : line minimisation
left   ...       0.00000000    -472.53016543
centre ...       0.10000000    -472.53016646
right  ...       0.20000000    -472.53016738

left   ...       0.00000000    -472.53016543
centre ...       0.10000000    -472.53016646
right  ...       0.20000000    -472.53016738
new    ...       0.30000000    -472.53016818

__s__    ...       0.10000000

 ALPHA AFTER:   0.30000000000000004     
 XC AFTER:   0.40111091618363515     
 SANITY CHECK:   0.30000000000482824     
 DIRECTION dim            1  value   -2.8592390044030489E-006
 DIRECTION dim            2  value    1.5337477727804505E-004
 DIRECTION dim            3  value    5.0651912171419101E-005
 DIRECTION dim            4  value   -4.0979858431761535E-005
 DIRECTION dim            5  value    1.3138157419359775E-004
 DIRECTION dim            6  value    3.0590610041150567E-005
 DIRECTION dim            7  value   -3.2684534769343324E-005
 DIRECTION dim            8  value    1.4948130189127080E-004
 DIRECTION dim            9  value    4.7434237648770258E-005
 DIRECTION dim           10  value   -3.9438978916091265E-005
 DIRECTION dim           11  value    4.3015786962375041E-006
 DIRECTION dim           12  value   -2.3173189815640924E-005
 DIRECTION dim           13  value    5.9264945278694689E-005
 DIRECTION dim           14  value    5.3585440175628419E-005
 DIRECTION dim           15  value   -7.6539238033847119E-006
 DIRECTION dim           16  value   -2.2830654477087434E-005
 DIRECTION dim           17  value    2.6031255367571163E-005
 DIRECTION dim           18  value   -4.1208531467342014E-005
 DIRECTION dim           19  value    1.1556940537801415E-005
 DIRECTION dim           20  value    2.1765381980652575E-004
 DIRECTION dim           21  value    1.2584399739380379E-007
 DIRECTION dim           22  value   -4.7718251158091455E-005
 DIRECTION dim           23  value    1.1777958485406101E-004
 DIRECTION dim           24  value    1.4181991101811862E-005
 DIRECTION dim           25  value   -3.1498936371827626E-005
 DIRECTION dim           26  value    9.1703892656644321E-005
 DIRECTION dim           27  value    1.1324639658254628E-005
 DIRECTION dim           28  value    5.7256044354450141E-006
 DIRECTION dim           29  value    1.4214983967794745E-004
 DIRECTION dim           30  value    1.6093915246613290E-005
 DIRECTION dim           31  value   -3.4004905242679036E-006
 DIRECTION dim           32  value    3.0538254388166122E-005
 DIRECTION dim           33  value   -8.4833049912508621E-006
 DIRECTION dim           34  value   -2.6265342654166197E-005
 DIRECTION dim           35  value    8.1590614946798842E-005
 DIRECTION dim           36  value   -4.9612700574638526E-006
 DIRECTION dim           37  value   -5.9223757196147968E-006
 DIRECTION dim           38  value    1.1272136189889766E-004
 DIRECTION dim           39  value    4.8207814751162802E-006
 DIRECTION dim           40  value   -4.8925479133525341E-006
 DIRECTION dim           41  value    8.7786048836914469E-005
 DIRECTION dim           42  value    1.7248890829681189E-005
 DIRECTION dim           43  value    2.5668911651805589E-005
 DIRECTION dim           44  value   -5.2070136108118531E-005
 DIRECTION dim           45  value   -2.7451737292600813E-006
 DIRECTION dim           46  value   -3.3753503948497346E-005
 DIRECTION dim           47  value   -9.8783718454585463E-005
 DIRECTION dim           48  value   -3.2729845484875118E-004
  Cycle:    127 Energy:      -472.530168  Gnorm:      0.000654  CPU:    0.812
  ** Hessian calculated **
 ALPHA BEFORE:    1.0000000000000000     
 XC BEFORE:   0.40111091618363515     
  ** Opt : line minimisation
left   ...       0.00000000    -472.53016818
centre ...       0.10000000    -472.53016864
right  ...       0.20000000    -472.53016904

left   ...       0.00000000    -472.53016818
centre ...       0.10000000    -472.53016864
right  ...       0.20000000    -472.53016904
new    ...       0.30000000    -472.53016940

__s__    ...       0.10000000

 ALPHA AFTER:   0.30000000000000004     
 XC AFTER:   0.40111026163298980     
 SANITY CHECK:   0.29999999997944432     
 DIRECTION dim            1  value   -2.1818354846543986E-006
 DIRECTION dim            2  value    1.0487444026498025E-004
 DIRECTION dim            3  value    3.4307128803228332E-005
 DIRECTION dim            4  value   -2.7711821595922344E-005
 DIRECTION dim            5  value    8.9729548624605714E-005
 DIRECTION dim            6  value    2.0800803140810111E-005
 DIRECTION dim            7  value   -2.3139542705745987E-005
 DIRECTION dim            8  value    1.0223438050836379E-004
 DIRECTION dim            9  value    3.1698896870635993E-005
 DIRECTION dim           10  value   -2.6498745109927503E-005
 DIRECTION dim           11  value    2.2800342898787962E-006
 DIRECTION dim           12  value   -1.5623917222489458E-005
 DIRECTION dim           13  value    3.9183531424442477E-005
 DIRECTION dim           14  value    3.5980383196075461E-005
 DIRECTION dim           15  value   -5.6333670179713776E-006
 DIRECTION dim           16  value   -1.6187196238256669E-005
 DIRECTION dim           17  value    1.7059246026751462E-005
 DIRECTION dim           18  value   -2.8106875277257853E-005
 DIRECTION dim           19  value    6.6904167433046521E-006
 DIRECTION dim           20  value    1.4896037557516500E-004
 DIRECTION dim           21  value   -4.6251609610417845E-007
 DIRECTION dim           22  value   -3.2717554218507213E-005
 DIRECTION dim           23  value    7.9663760150043117E-005
 DIRECTION dim           24  value    9.4548586895949926E-006
 DIRECTION dim           25  value   -2.1862691762895293E-005
 DIRECTION dim           26  value    6.1990882070138740E-005
 DIRECTION dim           27  value    7.4286379651617239E-006
 DIRECTION dim           28  value    1.3248547568509407E-006
 DIRECTION dim           29  value    9.6043509090843431E-005
 DIRECTION dim           30  value    1.0547830019506094E-005
 DIRECTION dim           31  value   -1.2654649201189393E-006
 DIRECTION dim           32  value    1.8485984803712858E-005
 DIRECTION dim           33  value   -6.2204486614254985E-006
 DIRECTION dim           34  value   -1.8217393894353419E-005
 DIRECTION dim           35  value    5.5179143550734025E-005
 DIRECTION dim           36  value   -3.4290745538758637E-006
 DIRECTION dim           37  value   -4.5000440098334135E-006
 DIRECTION dim           38  value    7.6614414081874551E-005
 DIRECTION dim           39  value    3.0911030963801879E-006
 DIRECTION dim           40  value   -4.0352050654566753E-006
 DIRECTION dim           41  value    5.9590990239846458E-005
 DIRECTION dim           42  value    1.1405145159175976E-005
 DIRECTION dim           43  value    1.7289201801381002E-005
 DIRECTION dim           44  value   -2.9330886560325897E-005
 DIRECTION dim           45  value   -2.1353494969270967E-006
 DIRECTION dim           46  value   -2.1877016341879443E-005
 DIRECTION dim           47  value   -6.9402779233197577E-005
 DIRECTION dim           48  value   -1.7303665028676538E-004
  Cycle:    128 Energy:      -472.530169  Gnorm:      0.000508  CPU:    0.818
 ALPHA BEFORE:   0.35556139380897117     
 XC BEFORE:   0.40111026163298980     
  ** Opt : line minimisation
left   ...       0.00000000    -472.53016940
centre ...       0.08889035    -472.53016965
right  ...       0.17778070    -472.53016987

left   ...       0.00000000    -472.53016940
centre ...       0.08889035    -472.53016965
right  ...       0.17778070    -472.53016987
new    ...       0.27778070    -472.53017010

__s__    ...       0.10000000

 ALPHA AFTER:   0.27778069690448559     
 XC AFTER:   0.40110979473105202     
 SANITY CHECK:   0.27778069689996343     
 DIRECTION dim            1  value   -1.6808293124382562E-006
 DIRECTION dim            2  value    8.0775423081946659E-005
 DIRECTION dim            3  value    2.6425771472795310E-005
 DIRECTION dim            4  value   -2.1344047530544582E-005
 DIRECTION dim            5  value    6.9113030045681452E-005
 DIRECTION dim            6  value    1.6022242091044263E-005
 DIRECTION dim            7  value   -1.7824914124001366E-005
 DIRECTION dim            8  value    7.8743932719843094E-005
 DIRECTION dim            9  value    2.4414573098950072E-005
 DIRECTION dim           10  value   -2.0406087649397649E-005
 DIRECTION dim           11  value    1.7532613400433780E-006
 DIRECTION dim           12  value   -1.2032148023034364E-005
 DIRECTION dim           13  value    3.0180421237550645E-005
 DIRECTION dim           14  value    2.7712692878467727E-005
 DIRECTION dim           15  value   -4.3385252308027944E-006
 DIRECTION dim           16  value   -1.2469698969663648E-005
 DIRECTION dim           17  value    1.3138216217468553E-005
 DIRECTION dim           18  value   -2.1649873836026280E-005
 DIRECTION dim           19  value    5.1465637207571972E-006
 DIRECTION dim           20  value    1.1474002223084702E-004
 DIRECTION dim           21  value   -3.6202157114417993E-007
 DIRECTION dim           22  value   -2.5203199608881648E-005
 DIRECTION dim           23  value    6.1357641262285408E-005
 DIRECTION dim           24  value    7.2825218948692084E-006
 DIRECTION dim           25  value   -1.6839662005979680E-005
 DIRECTION dim           26  value    4.7738618735493758E-005
 DIRECTION dim           27  value    5.7184795516479552E-006
 DIRECTION dim           28  value    1.0144190152899174E-006
 DIRECTION dim           29  value    7.3972292053824622E-005
 DIRECTION dim           30  value    8.1224452937181495E-006
 DIRECTION dim           31  value   -9.7214748778371339E-007
 DIRECTION dim           32  value    1.4212638831756238E-005
 DIRECTION dim           33  value   -4.7935491490204713E-006
 DIRECTION dim           34  value   -1.4032549313653570E-005
 DIRECTION dim           35  value    4.2500118424823329E-005
 DIRECTION dim           36  value   -2.6401986632028081E-006
 DIRECTION dim           37  value   -3.4673369302264659E-006
 DIRECTION dim           38  value    5.9008567243157226E-005
 DIRECTION dim           39  value    2.3794844001602557E-006
 DIRECTION dim           40  value   -3.1090377965024050E-006
 DIRECTION dim           41  value    4.5898117902349749E-005
 DIRECTION dim           42  value    8.7843549484871665E-006
 DIRECTION dim           43  value    1.7184815471110685E-005
 DIRECTION dim           44  value   -2.9554067443977966E-005
 DIRECTION dim           45  value   -1.3684361940909626E-006
 DIRECTION dim           46  value   -1.8314265821863105E-005
 DIRECTION dim           47  value   -5.2255005964553931E-005
 DIRECTION dim           48  value   -1.8164890257549331E-004


  **** Optimisation achieved ****


  Final energy =    -472.53017010 eV
  Final Gnorm  =       0.00037073

  Components of energy : 

--------------------------------------------------------------------------------
  Interatomic potentials     =          69.66308720 eV    
  Monopole - monopole (real) =        -259.20537015 eV    
  Monopole - monopole (recip)=        -282.98788715 eV    
  Monopole - monopole (total)=        -542.19325730 eV    
--------------------------------------------------------------------------------
  Total lattice energy       =        -472.53017010 eV    
--------------------------------------------------------------------------------
  Total lattice energy       =          -45591.9381 kJ/(mole unit cells)
--------------------------------------------------------------------------------

  Final fractional coordinates of atoms :

--------------------------------------------------------------------------------
   No.  Atomic        x           y          z          Radius
        Label       (Frac)      (Frac)     (Frac)       (Angs) 
--------------------------------------------------------------------------------
     1  O     c     0.000000    0.500000    0.250000    0.000000
     2  O     c     0.401110    0.555743    0.229251    0.000000
     3  O     c     0.220971    0.592963    0.566926    0.000000
     4  O     c     0.339962    0.079373    0.509566    0.000000
     5  O     c     0.816675    0.498810    0.722372    0.000000
     6  O     c     0.118974    0.986399    0.192649    0.000000
     7  O     c     0.938850    0.023621    0.530328    0.000000
     8  O     c     0.523285    0.080539    0.037218    0.000000
     9  O     c     0.169991    0.289673    0.879786    0.000000
    10  Sr    c     0.669986    0.289681    0.379787    0.000000
    11  Sr    c     0.595422    0.909938    0.710490    0.000000
    12  Sr    c     0.744528    0.669429    0.049089    0.000000
    13  Ti    c     0.096591    0.324836    0.655349    0.000000
    14  Ti    c     0.243371    0.254523    0.104233    0.000000
    15  Ti    c     0.169977    0.789683    0.379785    0.000000
--------------------------------------------------------------------------------

  Final Cartesian lattice vectors (Angstroms) :

        5.911625    0.063731    0.166081
        0.063731    5.207190   -0.518034
        0.332161   -1.036068    7.549473


  Final cell parameters and derivatives :

--------------------------------------------------------------------------------
       a            5.914301 Angstrom     dE/de1(xx)    -0.002398 eV/strain
       b            5.233283 Angstrom     dE/de2(yy)     0.000852 eV/strain
       c            7.627470 Angstrom     dE/de3(zz)     0.000950 eV/strain
       alpha      103.450329 Degrees      dE/de4(yz)     0.000421 eV/strain
       beta        85.994131 Degrees      dE/de5(xz)    -0.001608 eV/strain
       gamma       88.847419 Degrees      dE/de6(xy)     0.007499 eV/strain
--------------------------------------------------------------------------------

  Primitive cell volume =           228.882353 Angs**3

  Density of cell =      3.993935 g/cm**3

  Non-primitive cell volume =           228.882353 Angs**3


  Final internal derivatives :

--------------------------------------------------------------------------------
   No.  Atomic          a             b             c           Radius
        Label          (eV)          (eV)          (eV)        (eV/Angs)
--------------------------------------------------------------------------------
      1 O     c       0.000000      0.000000      0.000000      0.000000
      2 O     c      -0.000510      0.000805     -0.001754      0.000000
      3 O     c       0.001588      0.001913     -0.001247      0.000000
      4 O     c       0.000910      0.001161     -0.000246      0.000000
      5 O     c       0.002379      0.001283      0.002244      0.000000
      6 O     c      -0.003299     -0.005982      0.001072      0.000000
      7 O     c      -0.000698      0.000832      0.002146      0.000000
      8 O     c      -0.000521     -0.004634     -0.000569      0.000000
      9 O     c       0.000668     -0.000539     -0.000471      0.000000
     10 Sr    c       0.001034      0.000162      0.000338      0.000000
     11 Sr    c      -0.001193     -0.002463      0.000706      0.000000
     12 Sr    c      -0.000489      0.002919     -0.001384      0.000000
     13 Ti    c      -0.002012      0.000142      0.009654      0.000000
     14 Ti    c       0.001459     -0.002433     -0.003277      0.000000
     15 Ti    c      -0.001783     -0.000088     -0.002875      0.000000
--------------------------------------------------------------------------------
  Maximum abs         0.003299      0.005982      0.009654      0.000000
--------------------------------------------------------------------------------


  Time to end of optimisation =       0.8219 seconds

 Exiting ------OPTIONS------

  Peak dynamic memory used =       0.60 MB 


  Timing analysis for GULP :

--------------------------------------------------------------------------------
  Task / Subroutine                                          Time (Seconds)
--------------------------------------------------------------------------------
  Calculation of reciprocal space energy and derivatives          0.1007
  Calculation of real space energy and derivatives                0.6979
  Calculation of matrix inversion                                 0.0002
  Global summation overhead                                       0.0005
--------------------------------------------------------------------------------
  Total CPU time                                                  0.8219
--------------------------------------------------------------------------------


  Job Finished at 13:26.47 21st February   2020                               

