********************************************************************************
*                       GENERAL UTILITY LATTICE PROGRAM                        *
*                                 Julian Gale                                  *
*                       Curtin Institute for Computation                       *
*                           Department of Chemistry                            *
*                    Curtin University, Western Australia                      *
********************************************************************************
* Version = 5.1.1 * Last modified =  25th August 2019                          *
********************************************************************************
*  optimise     - perform optimisation run                                     *
*  conp         - constant pressure calculation                                *
*  nosymmetry   - turn off symmetry after initial structure generation         *
*  full         - generate full unit cell when symmetry is removed             *
*  conjugate    - use conjugate gradients minimiser                            *
********************************************************************************
* ASE calculation                                                              *
********************************************************************************


  Job Started  at 12:05.43  4th February   2020                               

  Number of CPUs =     1


  Total number of configurations input =      1

********************************************************************************
*  Input for Configuration =   1                                               *
********************************************************************************

  Formula = O9Sr3Ti3                                                    

  Number of irreducible atoms/shells =      15


  Total number atoms/shells =      15

  Dimensionality = 3               :  Bulk   



  Cartesian lattice vectors (Angstroms) :

        4.000000    0.000000    0.000000
        0.000000    6.000000    0.000000
        0.000000    0.000000   12.000000

  Cell parameters (Angstroms/Degrees):

  a =       4.0000    alpha =  90.0000
  b =       6.0000    beta  =  90.0000
  c =      12.0000    gamma =  90.0000

  Initial cell volume =         288.000000 Angs**3

  Temperature of configuration =  0.000     K 

  Pressure of configuration =         0.000 GPa 

  Fractional coordinates of asymmetric unit :

--------------------------------------------------------------------------------
   No.  Atomic       x           y          z         Charge      Occupancy
        Label      (Frac)      (Frac)     (Frac)        (e)         (Frac)  
--------------------------------------------------------------------------------
      1 O     c    0.000000    0.333330    0.000000    -2.00000    1.000000    
      2 O     c    0.000000 *  0.666670 *  0.166670 *  -2.00000    1.000000    
      3 O     c    0.500000 *  0.666670 *  0.333330 *  -2.00000    1.000000    
      4 O     c    0.000000 *  0.666670 *  0.666670 *  -2.00000    1.000000    
      5 O     c    0.000000 *  0.333330 *  0.166670 *  -2.00000    1.000000    
      6 O     c    0.000000 *  0.666670 *  0.833330 *  -2.00000    1.000000    
      7 O     c    0.500000 *  0.666670 *  0.666670 *  -2.00000    1.000000    
      8 O     c    0.000000 *  0.333330 *  0.500000 *  -2.00000    1.000000    
      9 O     c    0.000000 *  0.000000 *  0.500000 *  -2.00000    1.000000    
     10 Sr    c    0.750000 *  0.500000 *  0.250000 *   2.00000    1.000000    
     11 Sr    c    0.750000 *  0.500000 *  0.916670 *   2.00000    1.000000    
     12 Sr    c    0.750000 *  0.833330 *  0.750000 *   2.00000    1.000000    
     13 Ti    c    0.750000 *  0.833330 *  0.083330 *   4.00000    1.000000    
     14 Ti    c    0.250000 *  0.500000 *  0.916670 *   4.00000    1.000000    
     15 Ti    c    0.250000 *  0.166670 *  0.250000 *   4.00000    1.000000    
--------------------------------------------------------------------------------



********************************************************************************
*  General input information                                                   *
********************************************************************************

  Species output for all configurations : 

--------------------------------------------------------------------------------
  Species    Type    Atomic    Atomic    Charge       Radii (Angs)     Library
                     Number     Mass       (e)     Cova   Ionic  VDW   Symbol
--------------------------------------------------------------------------------
    O        Core        8      16.00  -2.000000   0.730  0.000  1.360          
    Sr       Core       38      87.62   2.000000   1.120  0.000  1.670          
    Ti       Core       22      47.88   4.000000   1.470  0.000  2.190          
--------------------------------------------------------------------------------


  Lattice summation method               =    Ewald          (3-D)
                                         =    Parry          (2-D)
                                         =    Saunders et al (1-D)
  Accuracy factor for lattice sums       =   12.000


  Time limit = Infinity

  Maximum range for interatomic potentials =    100000.000000 Angstroms

  General interatomic potentials :

--------------------------------------------------------------------------------
Atom  Types   Potential      Parameter       Value         Units   Cutoffs(Ang)
  1     2                                                            Min /  Max 
--------------------------------------------------------------------------------
O    c Sr   c Buckingham    Buckingham A     1952.3900    eV        0.000 10.000
                            Buckingham rho  0.33685000    Ang       
                            Buckingham C     19.220000    eV*Ang^6  
--------------------------------------------------------------------------------
O    c Ti   c Buckingham    Buckingham A     4590.7279    eV        0.000 10.000
                            Buckingham rho  0.26100000    Ang       
                            Buckingham C     0.0000000    eV*Ang^6  
--------------------------------------------------------------------------------
O    c O    c Buckingham    Buckingham A     1388.7700    eV        0.000 10.000
                            Buckingham rho  0.36262000    Ang       
                            Buckingham C     175.00000    eV*Ang^6  
--------------------------------------------------------------------------------
 Calling ------OPTIONS------

********************************************************************************
*  Output for configuration   1                                                *
********************************************************************************


  Components of energy : 

--------------------------------------------------------------------------------
  Interatomic potentials     =         128.82078291 eV    
  Monopole - monopole (real) =         -97.95825989 eV    
  Monopole - monopole (recip)=        -103.78411368 eV    
  Monopole - monopole (total)=        -201.74237357 eV    
--------------------------------------------------------------------------------
  Total lattice energy       =         -72.92159066 eV    
--------------------------------------------------------------------------------
  Total lattice energy       =           -7035.8188 kJ/(mole unit cells)
--------------------------------------------------------------------------------


  Number of variables =       48

  Maximum number of calculations  =          1000
  Maximum Hessian update interval =            10
  Maximum step size               =   0.001000000
  Maximum parameter tolerance     =   0.000010000
  Maximum function  tolerance     =   0.000010000
  Maximum gradient  tolerance     =   0.001000000
  Maximum gradient  component     =   0.010000000

  Cell parameters to be optimised using strains

  Conjugate gradient optimiser to be used

  Lower half triangular hessian to be used

  Minimiser to switch to BFGS with exact hessian
  When gradient norm is less than     0.500000

  Switch max step size to       0.10000000 when gnorm is less than    10.000000

  Start of bulk optimisation :

  Cycle:      0 Energy:       -72.921591  Gnorm:     38.397228  CPU:    0.013
 Perform trimming
 Line minimisation2
 ALPHA BEFORE:    1.0000000000000000     
  ** Opt : line minimisation
left   ...       0.00000000     -72.92159066
centre ...       0.00100000     -73.33514135
right  ...       0.00200000     -73.75269641

left   ...       0.00000000     -72.92159066
centre ...       0.00100000     -73.33514135
right  ...       0.00200000     -73.75269641
new    ...       0.00300000     -74.16953118

__s__    ...       0.00100000

left   ...       0.00100000     -73.33514135
centre ...       0.00200000     -73.75269641
right  ...       0.00300000     -74.16953118
new    ...       0.00400000     -74.58564607

__s__    ...       0.00100000

left   ...       0.00200000     -73.75269641
centre ...       0.00300000     -74.16953118
right  ...       0.00400000     -74.58564607
new    ...       0.00500000     -75.00104147

__s__    ...       0.00100000

 ALPHA AFTER:    5.0000000000000010E-003
  Cycle:      1 Energy:       -75.001041  Gnorm:     38.068460  CPU:    0.023
 Perform trimming
 Line minimisation2
 ALPHA BEFORE:    5.0000000000000010E-003
  ** Opt : line minimisation
left   ...       0.00000000     -75.00104147
centre ...       0.00100000     -75.62280123
right  ...       0.00200000     -76.24295561

left   ...       0.00000000     -75.00104147
centre ...       0.00100000     -75.62280123
right  ...       0.00200000     -76.24295561
new    ...       0.00300000     -76.86150604

__s__    ...       0.00100000

left   ...       0.00100000     -75.62280123
centre ...       0.00200000     -76.24295561
right  ...       0.00300000     -76.86150604
new    ...       0.00400000     -77.47845400

__s__    ...       0.00100000

left   ...       0.00200000     -76.24295561
centre ...       0.00300000     -76.86150604
right  ...       0.00400000     -77.47845400
new    ...       0.00500000     -78.09380099

__s__    ...       0.00100000

left   ...       0.00300000     -76.86150604
centre ...       0.00400000     -77.47845400
right  ...       0.00500000     -78.09380099
new    ...       0.00600000     -78.70754854

__s__    ...       0.00100000

left   ...       0.00400000     -77.47845400
centre ...       0.00500000     -78.09380099
right  ...       0.00600000     -78.70754854
new    ...       0.00700000     -79.31969821

__s__    ...       0.00100000

left   ...       0.00500000     -78.09380099
centre ...       0.00600000     -78.70754854
right  ...       0.00700000     -79.31969821
new    ...       0.00800000     -79.93025160

__s__    ...       0.00100000

 ALPHA AFTER:    8.0000000000000019E-003
  Cycle:      2 Energy:       -79.930252  Gnorm:     37.290418  CPU:    0.033
 Perform trimming
 Line minimisation2
 ALPHA BEFORE:    8.0000000000000019E-003
  ** Opt : line minimisation
left   ...       0.00000000     -79.93025160
centre ...       0.00100000     -80.84320481
right  ...       0.00200000     -81.75263759

left   ...       0.00000000     -79.93025160
centre ...       0.00100000     -80.84320481
right  ...       0.00200000     -81.75263759
new    ...       0.00300000     -82.65855568

__s__    ...       0.00100000

left   ...       0.00100000     -80.84320481
centre ...       0.00200000     -81.75263759
right  ...       0.00300000     -82.65855568
new    ...       0.00400000     -83.56096494

__s__    ...       0.00100000

left   ...       0.00200000     -81.75263759
centre ...       0.00300000     -82.65855568
right  ...       0.00400000     -83.56096494
new    ...       0.00500000     -84.45987142

__s__    ...       0.00100000

left   ...       0.00300000     -82.65855568
centre ...       0.00400000     -83.56096494
right  ...       0.00500000     -84.45987142
new    ...       0.00600000     -85.35528129

__s__    ...       0.00100000

left   ...       0.00400000     -83.56096494
centre ...       0.00500000     -84.45987142
right  ...       0.00600000     -85.35528129
new    ...       0.00700000     -86.24720087

__s__    ...       0.00100000

left   ...       0.00500000     -84.45987142
centre ...       0.00600000     -85.35528129
right  ...       0.00700000     -86.24720087
new    ...       0.00800000     -87.13563666

__s__    ...       0.00100000

 ALPHA AFTER:    8.0000000000000019E-003
  Cycle:      3 Energy:       -87.135637  Gnorm:     36.158626  CPU:    0.040
 Perform trimming
 Line minimisation2
 ALPHA BEFORE:    8.0000000000000019E-003
  ** Opt : line minimisation
left   ...       0.00000000     -87.13563666
centre ...       0.00100000     -88.46216845
right  ...       0.00200000     -89.78111865

left   ...       0.00000000     -87.13563666
centre ...       0.00100000     -88.46216845
right  ...       0.00200000     -89.78111865
new    ...       0.00300000     -91.09251067

__s__    ...       0.00100000

left   ...       0.00100000     -88.46216845
centre ...       0.00200000     -89.78111865
right  ...       0.00300000     -91.09251067
new    ...       0.00400000     -92.39636866

__s__    ...       0.00100000

left   ...       0.00200000     -89.78111865
centre ...       0.00300000     -91.09251067
right  ...       0.00400000     -92.39636866
new    ...       0.00500000     -93.69271744

__s__    ...       0.00100000

left   ...       0.00300000     -91.09251067
centre ...       0.00400000     -92.39636866
right  ...       0.00500000     -93.69271744
new    ...       0.00600000     -94.98158258

__s__    ...       0.00100000

left   ...       0.00400000     -92.39636866
centre ...       0.00500000     -93.69271744
right  ...       0.00600000     -94.98158258
new    ...       0.00700000     -96.26297114

__s__    ...       0.00100000

left   ...       0.00500000     -93.69271744
centre ...       0.00600000     -94.98158258
right  ...       0.00700000     -96.26297114
new    ...       0.00800000     -97.53692933

__s__    ...       0.00100000

 ALPHA AFTER:    8.0000000000000019E-003
  Cycle:      4 Energy:       -97.536929  Gnorm:     34.548776  CPU:    0.047
 Perform trimming
 Line minimisation2
 ALPHA BEFORE:    8.0000000000000019E-003
  ** Opt : line minimisation
left   ...       0.00000000     -97.53692933
centre ...       0.00100000     -99.43543116
right  ...       0.00200000    -101.31811981

left   ...       0.00000000     -97.53692933
centre ...       0.00100000     -99.43543116
right  ...       0.00200000    -101.31811981
new    ...       0.00300000    -103.18514965

__s__    ...       0.00100000

left   ...       0.00100000     -99.43543116
centre ...       0.00200000    -101.31811981
right  ...       0.00300000    -103.18514965
new    ...       0.00400000    -105.03656286

__s__    ...       0.00100000

left   ...       0.00200000    -101.31811981
centre ...       0.00300000    -103.18514965
right  ...       0.00400000    -105.03656286
new    ...       0.00500000    -106.87253940

__s__    ...       0.00100000

left   ...       0.00300000    -103.18514965
centre ...       0.00400000    -105.03656286
right  ...       0.00500000    -106.87253940
new    ...       0.00600000    -108.69316620

__s__    ...       0.00100000

left   ...       0.00400000    -105.03656286
centre ...       0.00500000    -106.87253940
right  ...       0.00600000    -108.69316620
new    ...       0.00700000    -110.49851415

__s__    ...       0.00100000

left   ...       0.00500000    -106.87253940
centre ...       0.00600000    -108.69316620
right  ...       0.00700000    -110.49851415
new    ...       0.00800000    -112.28869575

__s__    ...       0.00100000

 ALPHA AFTER:    8.0000000000000019E-003
  Cycle:      5 Energy:      -112.288696  Gnorm:     32.356181  CPU:    0.053
 Line minimisation2
 ALPHA BEFORE:    8.0000000000000019E-003
  ** Opt : line minimisation
left   ...       0.00000000    -112.28869575
centre ...       0.00100000    -114.58455136
right  ...       0.00200000    -116.85763956

left   ...       0.00000000    -112.28869575
centre ...       0.00100000    -114.58455136
right  ...       0.00200000    -116.85763956
new    ...       0.00300000    -119.10799291

__s__    ...       0.00100000

left   ...       0.00100000    -114.58455136
centre ...       0.00200000    -116.85763956
right  ...       0.00300000    -119.10799291
new    ...       0.00400000    -121.33627169

__s__    ...       0.00100000

left   ...       0.00200000    -116.85763956
centre ...       0.00300000    -119.10799291
right  ...       0.00400000    -121.33627169
new    ...       0.00500000    -123.54254083

__s__    ...       0.00100000

left   ...       0.00300000    -119.10799291
centre ...       0.00400000    -121.33627169
right  ...       0.00500000    -123.54254083
new    ...       0.00600000    -125.72708501

__s__    ...       0.00100000

left   ...       0.00400000    -121.33627169
centre ...       0.00500000    -123.54254083
right  ...       0.00600000    -125.72708501
new    ...       0.00700000    -127.89017587

__s__    ...       0.00100000

left   ...       0.00500000    -123.54254083
centre ...       0.00600000    -125.72708501
right  ...       0.00700000    -127.89017587
new    ...       0.00800000    -130.03201417

__s__    ...       0.00100000

 ALPHA AFTER:    8.0000000000000019E-003
  Cycle:      6 Energy:      -130.032014  Gnorm:     29.967716  CPU:    0.060
 Line minimisation2
 ALPHA BEFORE:    8.0000000000000019E-003
  ** Opt : line minimisation
left   ...       0.00000000    -130.03201417
centre ...       0.00100000    -131.95144617
right  ...       0.00200000    -133.85624782

left   ...       0.00000000    -130.03201417
centre ...       0.00100000    -131.95144617
right  ...       0.00200000    -133.85624782
new    ...       0.00300000    -135.74658677

__s__    ...       0.00100000

left   ...       0.00100000    -131.95144617
centre ...       0.00200000    -133.85624782
right  ...       0.00300000    -135.74658677
new    ...       0.00400000    -137.62269041

__s__    ...       0.00100000

left   ...       0.00200000    -133.85624782
centre ...       0.00300000    -135.74658677
right  ...       0.00400000    -137.62269041
new    ...       0.00500000    -139.48471124

__s__    ...       0.00100000

left   ...       0.00300000    -135.74658677
centre ...       0.00400000    -137.62269041
right  ...       0.00500000    -139.48471124
new    ...       0.00600000    -141.33288051

__s__    ...       0.00100000

left   ...       0.00400000    -137.62269041
centre ...       0.00500000    -139.48471124
right  ...       0.00600000    -141.33288051
new    ...       0.00700000    -143.16717953

__s__    ...       0.00100000

left   ...       0.00500000    -139.48471124
centre ...       0.00600000    -141.33288051
right  ...       0.00700000    -143.16717953
new    ...       0.00800000    -144.98782378

__s__    ...       0.00100000

 ALPHA AFTER:    8.0000000000000019E-003
  Cycle:      7 Energy:      -144.987824  Gnorm:     28.272497  CPU:    0.066
 Line minimisation2
 ALPHA BEFORE:    8.0000000000000019E-003
  ** Opt : line minimisation
left   ...       0.00000000    -144.98782378
centre ...       0.00100000    -146.72868600
right  ...       0.00200000    -148.45909704

left   ...       0.00000000    -144.98782378
centre ...       0.00100000    -146.72868600
right  ...       0.00200000    -148.45909704
new    ...       0.00300000    -150.17837375

__s__    ...       0.00100000

left   ...       0.00100000    -146.72868600
centre ...       0.00200000    -148.45909704
right  ...       0.00300000    -150.17837375
new    ...       0.00400000    -151.88804839

__s__    ...       0.00100000

left   ...       0.00200000    -148.45909704
centre ...       0.00300000    -150.17837375
right  ...       0.00400000    -151.88804839
new    ...       0.00500000    -153.58733977

__s__    ...       0.00100000

left   ...       0.00300000    -150.17837375
centre ...       0.00400000    -151.88804839
right  ...       0.00500000    -153.58733977
new    ...       0.00600000    -155.27704015

__s__    ...       0.00100000

left   ...       0.00400000    -151.88804839
centre ...       0.00500000    -153.58733977
right  ...       0.00600000    -155.27704015
new    ...       0.00700000    -156.95650546

__s__    ...       0.00100000

left   ...       0.00500000    -153.58733977
centre ...       0.00600000    -155.27704015
right  ...       0.00700000    -156.95650546
new    ...       0.00800000    -158.62631305

__s__    ...       0.00100000

 ALPHA AFTER:    8.0000000000000019E-003
  Cycle:      8 Energy:      -158.626313  Gnorm:     27.002629  CPU:    0.072
 Line minimisation2
 ALPHA BEFORE:    8.0000000000000019E-003
  ** Opt : line minimisation
left   ...       0.00000000    -158.62631305
centre ...       0.00100000    -160.23112313
right  ...       0.00200000    -161.82831361

left   ...       0.00000000    -158.62631305
centre ...       0.00100000    -160.23112313
right  ...       0.00200000    -161.82831361
new    ...       0.00300000    -163.41780281

__s__    ...       0.00100000

left   ...       0.00100000    -160.23112313
centre ...       0.00200000    -161.82831361
right  ...       0.00300000    -163.41780281
new    ...       0.00400000    -165.00020762

__s__    ...       0.00100000

left   ...       0.00200000    -161.82831361
centre ...       0.00300000    -163.41780281
right  ...       0.00400000    -165.00020762
new    ...       0.00500000    -166.57509360

__s__    ...       0.00100000

left   ...       0.00300000    -163.41780281
centre ...       0.00400000    -165.00020762
right  ...       0.00500000    -166.57509360
new    ...       0.00600000    -168.14278317

__s__    ...       0.00100000

left   ...       0.00400000    -165.00020762
centre ...       0.00500000    -166.57509360
right  ...       0.00600000    -168.14278317
new    ...       0.00700000    -169.70313127

__s__    ...       0.00100000

left   ...       0.00500000    -166.57509360
centre ...       0.00600000    -168.14278317
right  ...       0.00700000    -169.70313127
new    ...       0.00800000    -171.25668947

__s__    ...       0.00100000

 ALPHA AFTER:    8.0000000000000019E-003
  Cycle:      9 Energy:      -171.256689  Gnorm:     26.052839  CPU:    0.079
 Line minimisation2
 ALPHA BEFORE:    8.0000000000000019E-003
  ** Opt : line minimisation
left   ...       0.00000000    -171.25668947
centre ...       0.00100000    -172.81474061
right  ...       0.00200000    -174.36687430

left   ...       0.00000000    -171.25668947
centre ...       0.00100000    -172.81474061
right  ...       0.00200000    -174.36687430
new    ...       0.00300000    -175.91301950

__s__    ...       0.00100000

left   ...       0.00100000    -172.81474061
centre ...       0.00200000    -174.36687430
right  ...       0.00300000    -175.91301950
new    ...       0.00400000    -177.45323977

__s__    ...       0.00100000

left   ...       0.00200000    -174.36687430
centre ...       0.00300000    -175.91301950
right  ...       0.00400000    -177.45323977
new    ...       0.00500000    -178.98761582

__s__    ...       0.00100000

left   ...       0.00300000    -175.91301950
centre ...       0.00400000    -177.45323977
right  ...       0.00500000    -178.98761582
new    ...       0.00600000    -180.51622622

__s__    ...       0.00100000

left   ...       0.00400000    -177.45323977
centre ...       0.00500000    -178.98761582
right  ...       0.00600000    -180.51622622
new    ...       0.00700000    -182.03914734

__s__    ...       0.00100000

left   ...       0.00500000    -178.98761582
centre ...       0.00600000    -180.51622622
right  ...       0.00700000    -182.03914734
new    ...       0.00800000    -183.55625903

__s__    ...       0.00100000

 ALPHA AFTER:    8.0000000000000019E-003
  Cycle:     10 Energy:      -183.556259  Gnorm:     25.301055  CPU:    0.085
 Line minimisation2
 ALPHA BEFORE:    8.0000000000000019E-003
  ** Opt : line minimisation
left   ...       0.00000000    -183.55625903
centre ...       0.00100000    -184.98514213
right  ...       0.00200000    -186.40970818

left   ...       0.00000000    -183.55625903
centre ...       0.00100000    -184.98514213
right  ...       0.00200000    -186.40970818
new    ...       0.00300000    -187.83015787

__s__    ...       0.00100000

left   ...       0.00100000    -184.98514213
centre ...       0.00200000    -186.40970818
right  ...       0.00300000    -187.83015787
new    ...       0.00400000    -189.24622078

__s__    ...       0.00100000

left   ...       0.00200000    -186.40970818
centre ...       0.00300000    -187.83015787
right  ...       0.00400000    -189.24622078
new    ...       0.00500000    -190.65791766

__s__    ...       0.00100000

left   ...       0.00300000    -187.83015787
centre ...       0.00400000    -189.24622078
right  ...       0.00500000    -190.65791766
new    ...       0.00600000    -192.06563669

__s__    ...       0.00100000

left   ...       0.00400000    -189.24622078
centre ...       0.00500000    -190.65791766
right  ...       0.00600000    -192.06563669
new    ...       0.00700000    -193.46923874

__s__    ...       0.00100000

left   ...       0.00500000    -190.65791766
centre ...       0.00600000    -192.06563669
right  ...       0.00700000    -193.46923874
new    ...       0.00800000    -194.86875777

__s__    ...       0.00100000

 ALPHA AFTER:    8.0000000000000019E-003
  Cycle:     11 Energy:      -194.868758  Gnorm:     24.726659  CPU:    0.091
 Line minimisation2
 ALPHA BEFORE:    8.0000000000000019E-003
  ** Opt : line minimisation
left   ...       0.00000000    -194.86875777
centre ...       0.00100000    -196.24298311
right  ...       0.00200000    -197.61333484

left   ...       0.00000000    -194.86875777
centre ...       0.00100000    -196.24298311
right  ...       0.00200000    -197.61333484
new    ...       0.00300000    -198.98018137

__s__    ...       0.00100000

left   ...       0.00100000    -196.24298311
centre ...       0.00200000    -197.61333484
right  ...       0.00300000    -198.98018137
new    ...       0.00400000    -200.34353982

__s__    ...       0.00100000

left   ...       0.00200000    -197.61333484
centre ...       0.00300000    -198.98018137
right  ...       0.00400000    -200.34353982
new    ...       0.00500000    -201.70342534

__s__    ...       0.00100000

left   ...       0.00300000    -198.98018137
centre ...       0.00400000    -200.34353982
right  ...       0.00500000    -201.70342534
new    ...       0.00600000    -203.05985110

__s__    ...       0.00100000

left   ...       0.00400000    -200.34353982
centre ...       0.00500000    -201.70342534
right  ...       0.00600000    -203.05985110
new    ...       0.00700000    -204.41265348

__s__    ...       0.00100000

left   ...       0.00500000    -201.70342534
centre ...       0.00600000    -203.05985110
right  ...       0.00700000    -204.41265348
new    ...       0.00800000    -205.76219157

__s__    ...       0.00100000

 ALPHA AFTER:    8.0000000000000019E-003
  Cycle:     12 Energy:      -205.762192  Gnorm:     24.241659  CPU:    0.097
 Line minimisation2
 ALPHA BEFORE:    8.0000000000000019E-003
  ** Opt : line minimisation
left   ...       0.00000000    -205.76219157
centre ...       0.00100000    -207.08639064
right  ...       0.00200000    -208.40755674

left   ...       0.00000000    -205.76219157
centre ...       0.00100000    -207.08639064
right  ...       0.00200000    -208.40755674
new    ...       0.00300000    -209.72568866

__s__    ...       0.00100000

left   ...       0.00100000    -207.08639064
centre ...       0.00200000    -208.40755674
right  ...       0.00300000    -209.72568866
new    ...       0.00400000    -211.04078338

__s__    ...       0.00100000

left   ...       0.00200000    -208.40755674
centre ...       0.00300000    -209.72568866
right  ...       0.00400000    -211.04078338
new    ...       0.00500000    -212.35283610

__s__    ...       0.00100000

left   ...       0.00300000    -209.72568866
centre ...       0.00400000    -211.04078338
right  ...       0.00500000    -212.35283610
new    ...       0.00600000    -213.66182099

__s__    ...       0.00100000

left   ...       0.00400000    -211.04078338
centre ...       0.00500000    -212.35283610
right  ...       0.00600000    -213.66182099
new    ...       0.00700000    -214.96776813

__s__    ...       0.00100000

left   ...       0.00500000    -212.35283610
centre ...       0.00600000    -213.66182099
right  ...       0.00700000    -214.96776813
new    ...       0.00800000    -216.27064815

__s__    ...       0.00100000

 ALPHA AFTER:    8.0000000000000019E-003
  Cycle:     13 Energy:      -216.270648  Gnorm:     23.808322  CPU:    0.104
 Line minimisation2
 ALPHA BEFORE:    8.0000000000000019E-003
  ** Opt : line minimisation
left   ...       0.00000000    -216.27064815
centre ...       0.00100000    -217.55010029
right  ...       0.00200000    -218.82661270

left   ...       0.00000000    -216.27064815
centre ...       0.00100000    -217.55010029
right  ...       0.00200000    -218.82661270
new    ...       0.00300000    -220.10034329

__s__    ...       0.00100000

left   ...       0.00100000    -217.55010029
centre ...       0.00200000    -218.82661270
right  ...       0.00300000    -220.10034329
new    ...       0.00400000    -221.37125435

__s__    ...       0.00100000

left   ...       0.00200000    -218.82661270
centre ...       0.00300000    -220.10034329
right  ...       0.00400000    -221.37125435
new    ...       0.00500000    -222.63936427

__s__    ...       0.00100000

left   ...       0.00300000    -220.10034329
centre ...       0.00400000    -221.37125435
right  ...       0.00500000    -222.63936427
new    ...       0.00600000    -223.90463222

__s__    ...       0.00100000

left   ...       0.00400000    -221.37125435
centre ...       0.00500000    -222.63936427
right  ...       0.00600000    -223.90463222
new    ...       0.00700000    -225.16686011

__s__    ...       0.00100000

left   ...       0.00500000    -222.63936427
centre ...       0.00600000    -223.90463222
right  ...       0.00700000    -225.16686011
new    ...       0.00800000    -226.42619867

__s__    ...       0.00100000

 ALPHA AFTER:    8.0000000000000019E-003
  Cycle:     14 Energy:      -226.426199  Gnorm:     23.398911  CPU:    0.110
 Line minimisation2
 ALPHA BEFORE:    8.0000000000000019E-003
  ** Opt : line minimisation
left   ...       0.00000000    -226.42619867
centre ...       0.00100000    -227.66254076
right  ...       0.00200000    -228.89623798

left   ...       0.00000000    -226.42619867
centre ...       0.00100000    -227.66254076
right  ...       0.00200000    -228.89623798
new    ...       0.00300000    -230.12743668

__s__    ...       0.00100000

left   ...       0.00100000    -227.66254076
centre ...       0.00200000    -228.89623798
right  ...       0.00300000    -230.12743668
new    ...       0.00400000    -231.35575702

__s__    ...       0.00100000

left   ...       0.00200000    -228.89623798
centre ...       0.00300000    -230.12743668
right  ...       0.00400000    -231.35575702
new    ...       0.00500000    -232.58134265

__s__    ...       0.00100000

left   ...       0.00300000    -230.12743668
centre ...       0.00400000    -231.35575702
right  ...       0.00500000    -232.58134265
new    ...       0.00600000    -233.80396694

__s__    ...       0.00100000

left   ...       0.00400000    -231.35575702
centre ...       0.00500000    -232.58134265
right  ...       0.00600000    -233.80396694
new    ...       0.00700000    -235.02380987

__s__    ...       0.00100000

left   ...       0.00500000    -232.58134265
centre ...       0.00600000    -233.80396694
right  ...       0.00700000    -235.02380987
new    ...       0.00800000    -236.24116701

__s__    ...       0.00100000

 ALPHA AFTER:    8.0000000000000019E-003
  Cycle:     15 Energy:      -236.241167  Gnorm:     22.994424  CPU:    0.117
 Line minimisation2
 ALPHA BEFORE:    8.0000000000000019E-003
  ** Opt : line minimisation
left   ...       0.00000000    -236.24116701
centre ...       0.00100000    -237.43474354
right  ...       0.00200000    -238.62587588

left   ...       0.00000000    -236.24116701
centre ...       0.00100000    -237.43474354
right  ...       0.00200000    -238.62587588
new    ...       0.00300000    -239.81417737

__s__    ...       0.00100000

left   ...       0.00100000    -237.43474354
centre ...       0.00200000    -238.62587588
right  ...       0.00300000    -239.81417737
new    ...       0.00400000    -240.99994066

__s__    ...       0.00100000

left   ...       0.00200000    -238.62587588
centre ...       0.00300000    -239.81417737
right  ...       0.00400000    -240.99994066
new    ...       0.00500000    -242.18299006

__s__    ...       0.00100000

left   ...       0.00300000    -239.81417737
centre ...       0.00400000    -240.99994066
right  ...       0.00500000    -242.18299006
new    ...       0.00600000    -243.36326628

__s__    ...       0.00100000

left   ...       0.00400000    -240.99994066
centre ...       0.00500000    -242.18299006
right  ...       0.00600000    -243.36326628
new    ...       0.00700000    -244.54074752

__s__    ...       0.00100000

left   ...       0.00500000    -242.18299006
centre ...       0.00600000    -243.36326628
right  ...       0.00700000    -244.54074752
new    ...       0.00800000    -245.71535330

__s__    ...       0.00100000

 ALPHA AFTER:    8.0000000000000019E-003
  Cycle:     16 Energy:      -245.715353  Gnorm:     22.582336  CPU:    0.124
 Line minimisation2
 ALPHA BEFORE:    8.0000000000000019E-003
  ** Opt : line minimisation
left   ...       0.00000000    -245.71535330
centre ...       0.00100000    -246.86589556
right  ...       0.00200000    -248.01380805

left   ...       0.00000000    -245.71535330
centre ...       0.00100000    -246.86589556
right  ...       0.00200000    -248.01380805
new    ...       0.00300000    -249.15900991

__s__    ...       0.00100000

left   ...       0.00100000    -246.86589556
centre ...       0.00200000    -248.01380805
right  ...       0.00300000    -249.15900991
new    ...       0.00400000    -250.30147710

__s__    ...       0.00100000

left   ...       0.00200000    -248.01380805
centre ...       0.00300000    -249.15900991
right  ...       0.00400000    -250.30147710
new    ...       0.00500000    -251.44116551

__s__    ...       0.00100000

left   ...       0.00300000    -249.15900991
centre ...       0.00400000    -250.30147710
right  ...       0.00500000    -251.44116551
new    ...       0.00600000    -252.57803025

__s__    ...       0.00100000

left   ...       0.00400000    -250.30147710
centre ...       0.00500000    -251.44116551
right  ...       0.00600000    -252.57803025
new    ...       0.00700000    -253.71218146

__s__    ...       0.00100000

left   ...       0.00500000    -251.44116551
centre ...       0.00600000    -252.57803025
right  ...       0.00700000    -253.71218146
new    ...       0.00800000    -254.84326109

__s__    ...       0.00100000

 ALPHA AFTER:    8.0000000000000019E-003
  Cycle:     17 Energy:      -254.843261  Gnorm:     22.154872  CPU:    0.132
 Line minimisation2
 ALPHA BEFORE:    8.0000000000000019E-003
  ** Opt : line minimisation
left   ...       0.00000000    -254.84326109
centre ...       0.00100000    -255.94948977
right  ...       0.00200000    -257.05301139

left   ...       0.00000000    -254.84326109
centre ...       0.00100000    -255.94948977
right  ...       0.00200000    -257.05301139
new    ...       0.00300000    -258.15378022

__s__    ...       0.00100000

left   ...       0.00100000    -255.94948977
centre ...       0.00200000    -257.05301139
right  ...       0.00300000    -258.15378022
new    ...       0.00400000    -259.25174984

__s__    ...       0.00100000

left   ...       0.00200000    -257.05301139
centre ...       0.00300000    -258.15378022
right  ...       0.00400000    -259.25174984
new    ...       0.00500000    -260.34669818

__s__    ...       0.00100000

left   ...       0.00300000    -258.15378022
centre ...       0.00400000    -259.25174984
right  ...       0.00500000    -260.34669818
new    ...       0.00600000    -261.43890843

__s__    ...       0.00100000

left   ...       0.00400000    -259.25174984
centre ...       0.00500000    -260.34669818
right  ...       0.00600000    -261.43890843
new    ...       0.00700000    -262.52819557

__s__    ...       0.00100000

left   ...       0.00500000    -260.34669818
centre ...       0.00600000    -261.43890843
right  ...       0.00700000    -262.52819557
new    ...       0.00800000    -263.61449143

__s__    ...       0.00100000

 ALPHA AFTER:    8.0000000000000019E-003
  Cycle:     18 Energy:      -263.614491  Gnorm:     21.707629  CPU:    0.138
 Line minimisation2
 ALPHA BEFORE:    8.0000000000000019E-003
  ** Opt : line minimisation
left   ...       0.00000000    -263.61449143
centre ...       0.00100000    -264.67513435
right  ...       0.00200000    -265.73300221

left   ...       0.00000000    -263.61449143
centre ...       0.00100000    -264.67513435
right  ...       0.00200000    -265.73300221
new    ...       0.00300000    -266.78787278

__s__    ...       0.00100000

left   ...       0.00100000    -264.67513435
centre ...       0.00200000    -265.73300221
right  ...       0.00300000    -266.78787278
new    ...       0.00400000    -267.84004782

__s__    ...       0.00100000

left   ...       0.00200000    -265.73300221
centre ...       0.00300000    -266.78787278
right  ...       0.00400000    -267.84004782
new    ...       0.00500000    -268.88930369

__s__    ...       0.00100000

left   ...       0.00300000    -266.78787278
centre ...       0.00400000    -267.84004782
right  ...       0.00500000    -268.88930369
new    ...       0.00600000    -269.93559129

__s__    ...       0.00100000

left   ...       0.00400000    -267.84004782
centre ...       0.00500000    -268.88930369
right  ...       0.00600000    -269.93559129
new    ...       0.00700000    -270.97903603

__s__    ...       0.00100000

left   ...       0.00500000    -268.88930369
centre ...       0.00600000    -269.93559129
right  ...       0.00700000    -270.97903603
new    ...       0.00800000    -272.01906300

__s__    ...       0.00100000

 ALPHA AFTER:    8.0000000000000019E-003
  Cycle:     19 Energy:      -272.019063  Gnorm:     21.238449  CPU:    0.145
 Line minimisation2
 ALPHA BEFORE:    8.0000000000000019E-003
  ** Opt : line minimisation
left   ...       0.00000000    -272.01906300
centre ...       0.00100000    -273.05440649
right  ...       0.00200000    -274.08678099

left   ...       0.00000000    -272.01906300
centre ...       0.00100000    -273.05440649
right  ...       0.00200000    -274.08678099
new    ...       0.00300000    -275.11615445

__s__    ...       0.00100000

left   ...       0.00100000    -273.05440649
centre ...       0.00200000    -274.08678099
right  ...       0.00300000    -275.11615445
new    ...       0.00400000    -276.14243660

__s__    ...       0.00100000

left   ...       0.00200000    -274.08678099
centre ...       0.00300000    -275.11615445
right  ...       0.00400000    -276.14243660
new    ...       0.00500000    -277.16559433

__s__    ...       0.00100000

left   ...       0.00300000    -275.11615445
centre ...       0.00400000    -276.14243660
right  ...       0.00500000    -277.16559433
new    ...       0.00600000    -278.18557487

__s__    ...       0.00100000

left   ...       0.00400000    -276.14243660
centre ...       0.00500000    -277.16559433
right  ...       0.00600000    -278.18557487
new    ...       0.00700000    -279.20232497

__s__    ...       0.00100000

left   ...       0.00500000    -277.16559433
centre ...       0.00600000    -278.18557487
right  ...       0.00700000    -279.20232497
new    ...       0.00800000    -280.21577174

__s__    ...       0.00100000

 ALPHA AFTER:    8.0000000000000019E-003
  Cycle:     20 Energy:      -280.215772  Gnorm:     20.735179  CPU:    0.151
 Line minimisation2
 ALPHA BEFORE:    8.0000000000000019E-003
  ** Opt : line minimisation
left   ...       0.00000000    -280.21577174
centre ...       0.00100000    -281.17960517
right  ...       0.00200000    -282.14052414

left   ...       0.00000000    -280.21577174
centre ...       0.00100000    -281.17960517
right  ...       0.00200000    -282.14052414
new    ...       0.00300000    -283.09849989

__s__    ...       0.00100000

left   ...       0.00100000    -281.17960517
centre ...       0.00200000    -282.14052414
right  ...       0.00300000    -283.09849989
new    ...       0.00400000    -284.05350289

__s__    ...       0.00100000

left   ...       0.00200000    -282.14052414
centre ...       0.00300000    -283.09849989
right  ...       0.00400000    -284.05350289
new    ...       0.00500000    -285.00546511

__s__    ...       0.00100000

left   ...       0.00300000    -283.09849989
centre ...       0.00400000    -284.05350289
right  ...       0.00500000    -285.00546511
new    ...       0.00600000    -285.95433738

__s__    ...       0.00100000

left   ...       0.00400000    -284.05350289
centre ...       0.00500000    -285.00546511
right  ...       0.00600000    -285.95433738
new    ...       0.00700000    -286.90007014

__s__    ...       0.00100000

left   ...       0.00500000    -285.00546511
centre ...       0.00600000    -285.95433738
right  ...       0.00700000    -286.90007014
new    ...       0.00800000    -287.84261346

__s__    ...       0.00100000

 ALPHA AFTER:    8.0000000000000019E-003
  Cycle:     21 Energy:      -287.842613  Gnorm:     20.220562  CPU:    0.158
 Line minimisation2
 ALPHA BEFORE:    8.0000000000000019E-003
  ** Opt : line minimisation
left   ...       0.00000000    -287.84261346
centre ...       0.00100000    -288.75860007
right  ...       0.00200000    -289.67163666

left   ...       0.00000000    -287.84261346
centre ...       0.00100000    -288.75860007
right  ...       0.00200000    -289.67163666
new    ...       0.00300000    -290.58167554

__s__    ...       0.00100000

left   ...       0.00100000    -288.75860007
centre ...       0.00200000    -289.67163666
right  ...       0.00300000    -290.58167554
new    ...       0.00400000    -291.48866864

__s__    ...       0.00100000

left   ...       0.00200000    -289.67163666
centre ...       0.00300000    -290.58167554
right  ...       0.00400000    -291.48866864
new    ...       0.00500000    -292.39256752

__s__    ...       0.00100000

left   ...       0.00300000    -290.58167554
centre ...       0.00400000    -291.48866864
right  ...       0.00500000    -292.39256752
new    ...       0.00600000    -293.29349882

__s__    ...       0.00100000

left   ...       0.00400000    -291.48866864
centre ...       0.00500000    -292.39256752
right  ...       0.00600000    -293.29349882
new    ...       0.00700000    -294.19106303

__s__    ...       0.00100000

left   ...       0.00500000    -292.39256752
centre ...       0.00600000    -293.29349882
right  ...       0.00700000    -294.19106303
new    ...       0.00800000    -295.08538560

__s__    ...       0.00100000

 ALPHA AFTER:    8.0000000000000019E-003
  Cycle:     22 Energy:      -295.085386  Gnorm:     19.682849  CPU:    0.164
 Line minimisation2
 ALPHA BEFORE:    8.0000000000000019E-003
  ** Opt : line minimisation
left   ...       0.00000000    -295.08538560
centre ...       0.00100000    -295.95170826
right  ...       0.00200000    -296.81504514

left   ...       0.00000000    -295.08538560
centre ...       0.00100000    -295.95170826
right  ...       0.00200000    -296.81504514
new    ...       0.00300000    -297.67552491

__s__    ...       0.00100000

left   ...       0.00100000    -295.95170826
centre ...       0.00200000    -296.81504514
right  ...       0.00300000    -297.67552491
new    ...       0.00400000    -298.53274961

__s__    ...       0.00100000

left   ...       0.00200000    -296.81504514
centre ...       0.00300000    -297.67552491
right  ...       0.00400000    -298.53274961
new    ...       0.00500000    -299.38684660

__s__    ...       0.00100000

left   ...       0.00300000    -297.67552491
centre ...       0.00400000    -298.53274961
right  ...       0.00500000    -299.38684660
new    ...       0.00600000    -300.23741809

__s__    ...       0.00100000

left   ...       0.00400000    -298.53274961
centre ...       0.00500000    -299.38684660
right  ...       0.00600000    -300.23741809
new    ...       0.00700000    -301.08529121

__s__    ...       0.00100000

left   ...       0.00500000    -299.38684660
centre ...       0.00600000    -300.23741809
right  ...       0.00700000    -301.08529121
new    ...       0.00800000    -301.92971680

__s__    ...       0.00100000

 ALPHA AFTER:    8.0000000000000019E-003
  Cycle:     23 Energy:      -301.929717  Gnorm:     19.123058  CPU:    0.171
 Line minimisation2
 ALPHA BEFORE:    8.0000000000000019E-003
  ** Opt : line minimisation
left   ...       0.00000000    -301.92971680
centre ...       0.00100000    -302.74592964
right  ...       0.00200000    -303.55911392

left   ...       0.00000000    -301.92971680
centre ...       0.00100000    -302.74592964
right  ...       0.00200000    -303.55911392
new    ...       0.00300000    -304.36922365

__s__    ...       0.00100000

left   ...       0.00100000    -302.74592964
centre ...       0.00200000    -303.55911392
right  ...       0.00300000    -304.36922365
new    ...       0.00400000    -305.17625091

__s__    ...       0.00100000

left   ...       0.00200000    -303.55911392
centre ...       0.00300000    -304.36922365
right  ...       0.00400000    -305.17625091
new    ...       0.00500000    -305.98012979

__s__    ...       0.00100000

left   ...       0.00300000    -304.36922365
centre ...       0.00400000    -305.17625091
right  ...       0.00500000    -305.98012979
new    ...       0.00600000    -306.78081329

__s__    ...       0.00100000

left   ...       0.00400000    -305.17625091
centre ...       0.00500000    -305.98012979
right  ...       0.00600000    -306.78081329
new    ...       0.00700000    -307.57825406

__s__    ...       0.00100000

left   ...       0.00500000    -305.98012979
centre ...       0.00600000    -306.78081329
right  ...       0.00700000    -307.57825406
new    ...       0.00800000    -308.37259899

__s__    ...       0.00100000

 ALPHA AFTER:    8.0000000000000019E-003
  Cycle:     24 Energy:      -308.372599  Gnorm:     18.541549  CPU:    0.177
 Line minimisation2
 ALPHA BEFORE:    8.0000000000000019E-003
  ** Opt : line minimisation
left   ...       0.00000000    -308.37259899
centre ...       0.00100000    -309.13834755
right  ...       0.00200000    -309.90072668

left   ...       0.00000000    -308.37259899
centre ...       0.00100000    -309.13834755
right  ...       0.00200000    -309.90072668
new    ...       0.00300000    -310.66039207

__s__    ...       0.00100000

left   ...       0.00100000    -309.13834755
centre ...       0.00200000    -309.90072668
right  ...       0.00300000    -310.66039207
new    ...       0.00400000    -311.41729833

__s__    ...       0.00100000

left   ...       0.00200000    -309.90072668
centre ...       0.00300000    -310.66039207
right  ...       0.00400000    -311.41729833
new    ...       0.00500000    -312.17069997

__s__    ...       0.00100000

left   ...       0.00300000    -310.66039207
centre ...       0.00400000    -311.41729833
right  ...       0.00500000    -312.17069997
new    ...       0.00600000    -312.92090092

__s__    ...       0.00100000

left   ...       0.00400000    -311.41729833
centre ...       0.00500000    -312.17069997
right  ...       0.00600000    -312.92090092
new    ...       0.00700000    -313.66785510

__s__    ...       0.00100000

left   ...       0.00500000    -312.17069997
centre ...       0.00600000    -312.92090092
right  ...       0.00700000    -313.66785510
new    ...       0.00800000    -314.41134120

__s__    ...       0.00100000

 ALPHA AFTER:    8.0000000000000019E-003
  Cycle:     25 Energy:      -314.411341  Gnorm:     17.938988  CPU:    0.184
 Line minimisation2
 ALPHA BEFORE:    8.0000000000000019E-003
  ** Opt : line minimisation
left   ...       0.00000000    -314.41134120
centre ...       0.00100000    -315.12657206
right  ...       0.00200000    -315.83878786

left   ...       0.00000000    -314.41134120
centre ...       0.00100000    -315.12657206
right  ...       0.00200000    -315.83878786
new    ...       0.00300000    -316.54812037

__s__    ...       0.00100000

left   ...       0.00100000    -315.12657206
centre ...       0.00200000    -315.83878786
right  ...       0.00300000    -316.54812037
new    ...       0.00400000    -317.25437078

__s__    ...       0.00100000

left   ...       0.00200000    -315.83878786
centre ...       0.00300000    -316.54812037
right  ...       0.00400000    -317.25437078
new    ...       0.00500000    -317.95728110

__s__    ...       0.00100000

left   ...       0.00300000    -316.54812037
centre ...       0.00400000    -317.25437078
right  ...       0.00500000    -317.95728110
new    ...       0.00600000    -318.65682625

__s__    ...       0.00100000

left   ...       0.00400000    -317.25437078
centre ...       0.00500000    -317.95728110
right  ...       0.00600000    -318.65682625
new    ...       0.00700000    -319.35331172

__s__    ...       0.00100000

left   ...       0.00500000    -317.95728110
centre ...       0.00600000    -318.65682625
right  ...       0.00700000    -319.35331172
new    ...       0.00800000    -320.04669300

__s__    ...       0.00100000

 ALPHA AFTER:    8.0000000000000019E-003
  Cycle:     26 Energy:      -320.046693  Gnorm:     17.316279  CPU:    0.190
 Line minimisation2
 ALPHA BEFORE:    8.0000000000000019E-003
  ** Opt : line minimisation
left   ...       0.00000000    -320.04669300
centre ...       0.00100000    -320.71141448
right  ...       0.00200000    -321.37331724

left   ...       0.00000000    -320.04669300
centre ...       0.00100000    -320.71141448
right  ...       0.00200000    -321.37331724
new    ...       0.00300000    -322.03200975

__s__    ...       0.00100000

left   ...       0.00100000    -320.71141448
centre ...       0.00200000    -321.37331724
right  ...       0.00300000    -322.03200975
new    ...       0.00400000    -322.68780029

__s__    ...       0.00100000

left   ...       0.00200000    -321.37331724
centre ...       0.00300000    -322.03200975
right  ...       0.00400000    -322.68780029
new    ...       0.00500000    -323.34047168

__s__    ...       0.00100000

left   ...       0.00300000    -322.03200975
centre ...       0.00400000    -322.68780029
right  ...       0.00500000    -323.34047168
new    ...       0.00600000    -323.98998162

__s__    ...       0.00100000

left   ...       0.00400000    -322.68780029
centre ...       0.00500000    -323.34047168
right  ...       0.00600000    -323.98998162
new    ...       0.00700000    -324.63628752

__s__    ...       0.00100000

left   ...       0.00500000    -323.34047168
centre ...       0.00600000    -323.98998162
right  ...       0.00700000    -324.63628752
new    ...       0.00800000    -325.27934653

__s__    ...       0.00100000

 ALPHA AFTER:    8.0000000000000019E-003
  Cycle:     27 Energy:      -325.279347  Gnorm:     16.674923  CPU:    0.196
 Line minimisation2
 ALPHA BEFORE:    8.0000000000000019E-003
  ** Opt : line minimisation
left   ...       0.00000000    -325.27934653
centre ...       0.00100000    -325.89439958
right  ...       0.00200000    -326.50649931

left   ...       0.00000000    -325.27934653
centre ...       0.00100000    -325.89439958
right  ...       0.00200000    -326.50649931
new    ...       0.00300000    -327.11560654

__s__    ...       0.00100000

left   ...       0.00100000    -325.89439958
centre ...       0.00200000    -326.50649931
right  ...       0.00300000    -327.11560654
new    ...       0.00400000    -327.72168185

__s__    ...       0.00100000

left   ...       0.00200000    -326.50649931
centre ...       0.00300000    -327.11560654
right  ...       0.00400000    -327.72168185
new    ...       0.00500000    -328.32468557

__s__    ...       0.00100000

left   ...       0.00300000    -327.11560654
centre ...       0.00400000    -327.72168185
right  ...       0.00500000    -328.32468557
new    ...       0.00600000    -328.92457777

__s__    ...       0.00100000

left   ...       0.00400000    -327.72168185
centre ...       0.00500000    -328.32468557
right  ...       0.00600000    -328.92457777
new    ...       0.00700000    -329.52112411

__s__    ...       0.00100000

left   ...       0.00500000    -328.32468557
centre ...       0.00600000    -328.92457777
right  ...       0.00700000    -329.52112411
new    ...       0.00800000    -330.11484774

__s__    ...       0.00100000

 ALPHA AFTER:    8.0000000000000019E-003
  Cycle:     28 Energy:      -330.114848  Gnorm:     16.017317  CPU:    0.203
 Line minimisation2
 ALPHA BEFORE:    8.0000000000000019E-003
  ** Opt : line minimisation
left   ...       0.00000000    -330.11484774
centre ...       0.00100000    -330.68091432
right  ...       0.00200000    -331.24409072

left   ...       0.00000000    -330.11484774
centre ...       0.00100000    -330.68091432
right  ...       0.00200000    -331.24409072
new    ...       0.00300000    -331.80434053

__s__    ...       0.00100000

left   ...       0.00100000    -330.68091432
centre ...       0.00200000    -331.24409072
right  ...       0.00300000    -331.80434053
new    ...       0.00400000    -332.36180212

__s__    ...       0.00100000

left   ...       0.00200000    -331.24409072
centre ...       0.00300000    -331.80434053
right  ...       0.00400000    -332.36180212
new    ...       0.00500000    -332.91626397

__s__    ...       0.00100000

left   ...       0.00300000    -331.80434053
centre ...       0.00400000    -332.36180212
right  ...       0.00500000    -332.91626397
new    ...       0.00600000    -333.46768913

__s__    ...       0.00100000

left   ...       0.00400000    -332.36180212
centre ...       0.00500000    -332.91626397
right  ...       0.00600000    -333.46768913
new    ...       0.00700000    -334.01586500

__s__    ...       0.00100000

left   ...       0.00500000    -332.91626397
centre ...       0.00600000    -333.46768913
right  ...       0.00700000    -334.01586500
new    ...       0.00800000    -334.56092912

__s__    ...       0.00100000

 ALPHA AFTER:    8.0000000000000019E-003
  Cycle:     29 Energy:      -334.560929  Gnorm:     15.347018  CPU:    0.209
 Line minimisation2
 ALPHA BEFORE:    8.0000000000000019E-003
  ** Opt : line minimisation
left   ...       0.00000000    -334.56092912
centre ...       0.00100000    -335.10073578
right  ...       0.00200000    -335.63749728

left   ...       0.00000000    -334.56092912
centre ...       0.00100000    -335.10073578
right  ...       0.00200000    -335.63749728
new    ...       0.00300000    -336.17117612

__s__    ...       0.00100000

left   ...       0.00100000    -335.10073578
centre ...       0.00200000    -335.63749728
right  ...       0.00300000    -336.17117612
new    ...       0.00400000    -336.70173462

__s__    ...       0.00100000

left   ...       0.00200000    -335.63749728
centre ...       0.00300000    -336.17117612
right  ...       0.00400000    -336.70173462
new    ...       0.00500000    -337.22913491

__s__    ...       0.00100000

left   ...       0.00300000    -336.17117612
centre ...       0.00400000    -336.70173462
right  ...       0.00500000    -337.22913491
new    ...       0.00600000    -337.75333891

__s__    ...       0.00100000

left   ...       0.00400000    -336.70173462
centre ...       0.00500000    -337.22913491
right  ...       0.00600000    -337.75333891
new    ...       0.00700000    -338.27448343

__s__    ...       0.00100000

left   ...       0.00500000    -337.22913491
centre ...       0.00600000    -337.75333891
right  ...       0.00700000    -338.27448343
new    ...       0.00800000    -338.79218005

__s__    ...       0.00100000

 ALPHA AFTER:    8.0000000000000019E-003
  Cycle:     30 Energy:      -338.792180  Gnorm:     14.639171  CPU:    0.215
 Line minimisation2
 ALPHA BEFORE:    8.0000000000000019E-003
  ** Opt : line minimisation
left   ...       0.00000000    -338.79218005
centre ...       0.00100000    -339.26070325
right  ...       0.00200000    -339.72674274

left   ...       0.00000000    -338.79218005
centre ...       0.00100000    -339.26070325
right  ...       0.00200000    -339.72674274
new    ...       0.00300000    -340.19009449

__s__    ...       0.00100000

left   ...       0.00100000    -339.26070325
centre ...       0.00200000    -339.72674274
right  ...       0.00300000    -340.19009449
new    ...       0.00400000    -340.65072936

__s__    ...       0.00100000

left   ...       0.00200000    -339.72674274
centre ...       0.00300000    -340.19009449
right  ...       0.00400000    -340.65072936
new    ...       0.00500000    -341.10861809

__s__    ...       0.00100000

 ALPHA AFTER:    5.0000000000000010E-003
  Cycle:     31 Energy:      -341.108618  Gnorm:     14.221365  CPU:    0.219
 Line minimisation2
 ALPHA BEFORE:    5.0000000000000010E-003
  ** Opt : line minimisation
left   ...       0.00000000    -341.10861809
centre ...       0.00100000    -341.55943595
right  ...       0.00200000    -342.00756764

left   ...       0.00000000    -341.10861809
centre ...       0.00100000    -341.55943595
right  ...       0.00200000    -342.00756764
new    ...       0.00300000    -342.45298480

__s__    ...       0.00100000

left   ...       0.00100000    -341.55943595
centre ...       0.00200000    -342.00756764
right  ...       0.00300000    -342.45298480
new    ...       0.00400000    -342.89565895

__s__    ...       0.00100000

left   ...       0.00200000    -342.00756764
centre ...       0.00300000    -342.45298480
right  ...       0.00400000    -342.89565895
new    ...       0.00500000    -343.33538654

__s__    ...       0.00100000

 ALPHA AFTER:    5.0000000000000010E-003
  Cycle:     32 Energy:      -343.335387  Gnorm:     13.795819  CPU:    0.224
 Line minimisation2
 ALPHA BEFORE:    5.0000000000000010E-003
  ** Opt : line minimisation
left   ...       0.00000000    -343.33538654
centre ...       0.00100000    -343.75875075
right  ...       0.00200000    -344.17953398

left   ...       0.00000000    -343.33538654
centre ...       0.00100000    -343.75875075
right  ...       0.00200000    -344.17953398
new    ...       0.00300000    -344.59753563

__s__    ...       0.00100000

left   ...       0.00100000    -343.75875075
centre ...       0.00200000    -344.17953398
right  ...       0.00300000    -344.59753563
new    ...       0.00400000    -345.01307994

__s__    ...       0.00100000

left   ...       0.00200000    -344.17953398
centre ...       0.00300000    -344.59753563
right  ...       0.00400000    -345.01307994
new    ...       0.00500000    -345.42596601

__s__    ...       0.00100000

 ALPHA AFTER:    5.0000000000000010E-003
  Cycle:     33 Energy:      -345.425966  Gnorm:     13.374048  CPU:    0.228
 Line minimisation2
 ALPHA BEFORE:    5.0000000000000010E-003
  ** Opt : line minimisation
left   ...       0.00000000    -345.42596601
centre ...       0.00100000    -345.82354118
right  ...       0.00200000    -346.21864416

left   ...       0.00000000    -345.42596601
centre ...       0.00100000    -345.82354118
right  ...       0.00200000    -346.21864416
new    ...       0.00300000    -346.61125188

__s__    ...       0.00100000

left   ...       0.00100000    -345.82354118
centre ...       0.00200000    -346.21864416
right  ...       0.00300000    -346.61125188
new    ...       0.00400000    -347.00134119

__s__    ...       0.00100000

left   ...       0.00200000    -346.21864416
centre ...       0.00300000    -346.61125188
right  ...       0.00400000    -347.00134119
new    ...       0.00500000    -347.38888895

__s__    ...       0.00100000

 ALPHA AFTER:    5.0000000000000010E-003
  Cycle:     34 Energy:      -347.388889  Gnorm:     12.957650  CPU:    0.232
 Line minimisation2
 ALPHA BEFORE:    5.0000000000000010E-003
  ** Opt : line minimisation
left   ...       0.00000000    -347.38888895
centre ...       0.00100000    -347.76183256
right  ...       0.00200000    -348.13242250

left   ...       0.00000000    -347.38888895
centre ...       0.00100000    -347.76183256
right  ...       0.00200000    -348.13242250
new    ...       0.00300000    -348.50063826

__s__    ...       0.00100000

left   ...       0.00100000    -347.76183256
centre ...       0.00200000    -348.13242250
right  ...       0.00300000    -348.50063826
new    ...       0.00400000    -348.86645934

__s__    ...       0.00100000

left   ...       0.00200000    -348.13242250
centre ...       0.00300000    -348.50063826
right  ...       0.00400000    -348.86645934
new    ...       0.00500000    -349.22986520

__s__    ...       0.00100000

 ALPHA AFTER:    5.0000000000000010E-003
  Cycle:     35 Energy:      -349.229865  Gnorm:     12.548872  CPU:    0.237
 Line minimisation2
 ALPHA BEFORE:    5.0000000000000010E-003
  ** Opt : line minimisation
left   ...       0.00000000    -349.22986520
centre ...       0.00100000    -349.57945963
right  ...       0.00200000    -349.92682661

left   ...       0.00000000    -349.22986520
centre ...       0.00100000    -349.57945963
right  ...       0.00200000    -349.92682661
new    ...       0.00300000    -350.27196742

__s__    ...       0.00100000

left   ...       0.00100000    -349.57945963
centre ...       0.00200000    -349.92682661
right  ...       0.00300000    -350.27196742
new    ...       0.00400000    -350.61482560

__s__    ...       0.00100000

left   ...       0.00200000    -349.92682661
centre ...       0.00300000    -350.27196742
right  ...       0.00400000    -350.61482560
new    ...       0.00500000    -350.95540238

__s__    ...       0.00100000

 ALPHA AFTER:    5.0000000000000010E-003
  Cycle:     36 Energy:      -350.955402  Gnorm:     12.149907  CPU:    0.241
 Line minimisation2
 ALPHA BEFORE:    5.0000000000000010E-003
  ** Opt : line minimisation
left   ...       0.00000000    -350.95540238
centre ...       0.00100000    -351.28282380
right  ...       0.00200000    -351.60832492

left   ...       0.00000000    -350.95540238
centre ...       0.00100000    -351.28282380
right  ...       0.00200000    -351.60832492
new    ...       0.00300000    -351.93171515

__s__    ...       0.00100000

left   ...       0.00100000    -351.28282380
centre ...       0.00200000    -351.60832492
right  ...       0.00300000    -351.93171515
new    ...       0.00400000    -352.25297888

__s__    ...       0.00100000

left   ...       0.00200000    -351.60832492
centre ...       0.00300000    -351.93171515
right  ...       0.00400000    -352.25297888
new    ...       0.00500000    -352.57210054

__s__    ...       0.00100000

 ALPHA AFTER:    5.0000000000000010E-003
  Cycle:     37 Energy:      -352.572101  Gnorm:     11.762857  CPU:    0.245
 Line minimisation2
 ALPHA BEFORE:    5.0000000000000010E-003
  ** Opt : line minimisation
left   ...       0.00000000    -352.57210054
centre ...       0.00100000    -352.87908047
right  ...       0.00200000    -353.18392619

left   ...       0.00000000    -352.57210054
centre ...       0.00100000    -352.87908047
right  ...       0.00200000    -353.18392619
new    ...       0.00300000    -353.48699348

__s__    ...       0.00100000

left   ...       0.00100000    -352.87908047
centre ...       0.00200000    -353.18392619
right  ...       0.00300000    -353.48699348
new    ...       0.00400000    -353.78807472

__s__    ...       0.00100000

left   ...       0.00200000    -353.18392619
centre ...       0.00300000    -353.48699348
right  ...       0.00400000    -353.78807472
new    ...       0.00500000    -354.08715656

__s__    ...       0.00100000

 ALPHA AFTER:    5.0000000000000010E-003
  Cycle:     38 Energy:      -354.087157  Gnorm:     11.389650  CPU:    0.250
 Line minimisation2
 ALPHA BEFORE:    5.0000000000000010E-003
  ** Opt : line minimisation
left   ...       0.00000000    -354.08715656
centre ...       0.00100000    -354.37481110
right  ...       0.00200000    -354.66081909

left   ...       0.00000000    -354.08715656
centre ...       0.00100000    -354.37481110
right  ...       0.00200000    -354.66081909
new    ...       0.00300000    -354.94499412

__s__    ...       0.00100000

left   ...       0.00100000    -354.37481110
centre ...       0.00200000    -354.66081909
right  ...       0.00300000    -354.94499412
new    ...       0.00400000    -355.22732486

__s__    ...       0.00100000

left   ...       0.00200000    -354.66081909
centre ...       0.00300000    -354.94499412
right  ...       0.00400000    -355.22732486
new    ...       0.00500000    -355.50780003

__s__    ...       0.00100000

 ALPHA AFTER:    5.0000000000000010E-003
  Cycle:     39 Energy:      -355.507800  Gnorm:     11.031987  CPU:    0.254
 Line minimisation2
 ALPHA BEFORE:    5.0000000000000010E-003
  ** Opt : line minimisation
left   ...       0.00000000    -355.50780003
centre ...       0.00100000    -355.78606745
right  ...       0.00200000    -356.06271674

left   ...       0.00000000    -355.50780003
centre ...       0.00100000    -355.78606745
right  ...       0.00200000    -356.06271674
new    ...       0.00300000    -356.33756237

__s__    ...       0.00100000

left   ...       0.00100000    -355.78606745
centre ...       0.00200000    -356.06271674
right  ...       0.00300000    -356.33756237
new    ...       0.00400000    -356.61059392

__s__    ...       0.00100000

left   ...       0.00200000    -356.06271674
centre ...       0.00300000    -356.33756237
right  ...       0.00400000    -356.61059392
new    ...       0.00500000    -356.88180102

__s__    ...       0.00100000

 ALPHA AFTER:    5.0000000000000010E-003
  Cycle:     40 Energy:      -356.881801  Gnorm:     10.680469  CPU:    0.258
 Line minimisation2
 ALPHA BEFORE:    5.0000000000000010E-003
  ** Opt : line minimisation
left   ...       0.00000000    -356.88180102
centre ...       0.00100000    -357.13456971
right  ...       0.00200000    -357.38579988

left   ...       0.00000000    -356.88180102
centre ...       0.00100000    -357.13456971
right  ...       0.00200000    -357.38579988
new    ...       0.00300000    -357.63548375

__s__    ...       0.00100000

left   ...       0.00100000    -357.13456971
centre ...       0.00200000    -357.38579988
right  ...       0.00300000    -357.63548375
new    ...       0.00400000    -357.88359432

__s__    ...       0.00100000

left   ...       0.00200000    -357.38579988
centre ...       0.00300000    -357.63548375
right  ...       0.00400000    -357.88359432
new    ...       0.00500000    -358.13016231

__s__    ...       0.00100000

 ALPHA AFTER:    5.0000000000000010E-003
  Cycle:     41 Energy:      -358.130162  Gnorm:     10.359119  CPU:    0.263
 Line minimisation2
 ALPHA BEFORE:    5.0000000000000010E-003
  ** Opt : line minimisation
left   ...       0.00000000    -358.13016231
centre ...       0.00100000    -358.36840736
right  ...       0.00200000    -358.60541308

left   ...       0.00000000    -358.13016231
centre ...       0.00100000    -358.36840736
right  ...       0.00200000    -358.60541308
new    ...       0.00300000    -358.84099774

__s__    ...       0.00100000

left   ...       0.00100000    -358.36840736
centre ...       0.00200000    -358.60541308
right  ...       0.00300000    -358.84099774
new    ...       0.00400000    -359.07515492

__s__    ...       0.00100000

left   ...       0.00200000    -358.60541308
centre ...       0.00300000    -358.84099774
right  ...       0.00400000    -359.07515492
new    ...       0.00500000    -359.30787822

__s__    ...       0.00100000

 ALPHA AFTER:    5.0000000000000010E-003
  Cycle:     42 Energy:      -359.307878  Gnorm:     10.055906  CPU:    0.267
 Line minimisation2
 ALPHA BEFORE:    5.0000000000000010E-003
  ** Opt : line minimisation
left   ...       0.00000000    -359.30787822
centre ...       0.00100000    -359.53269035
right  ...       0.00200000    -359.75621364

left   ...       0.00000000    -359.30787822
centre ...       0.00100000    -359.53269035
right  ...       0.00200000    -359.75621364
new    ...       0.00300000    -359.97844286

__s__    ...       0.00100000

left   ...       0.00100000    -359.53269035
centre ...       0.00200000    -359.75621364
right  ...       0.00300000    -359.97844286
new    ...       0.00400000    -360.19937277

__s__    ...       0.00100000

left   ...       0.00200000    -359.75621364
centre ...       0.00300000    -359.97844286
right  ...       0.00400000    -360.19937277
new    ...       0.00500000    -360.41899815

__s__    ...       0.00100000

 ALPHA AFTER:    5.0000000000000010E-003
  Cycle:     43 Energy:      -360.418998  Gnorm:      9.771999  CPU:    0.271
 Line minimisation2
 ALPHA BEFORE:    5.0000000000000010E-003
  ** Opt : line minimisation
left   ...       0.00000000    -360.41899815
centre ...       0.00125000    -360.68425838
right  ...       0.00250000    -360.94803878

left   ...       0.00000000    -360.41899815
centre ...       0.00125000    -360.68425838
right  ...       0.00250000    -360.94803878
new    ...       0.10250000    -375.47996877

__s__    ...       0.10000000

left   ...       0.00125000    -360.68425838
centre ...       0.00250000    -360.94803878
right  ...       0.10250000    -375.47996877
new    ...       0.16446693    -377.37425436

__s__    ...       0.06196693

left   ...       0.00250000    -360.94803878
centre ...       0.10250000    -375.47996877
right  ...       0.16446693    -377.37425436
new    ...       0.15505739    -377.44748323

__s__    ...      -0.00940954

 ALPHA AFTER:   0.15505738770228303     
  Cycle:     44 Energy:      -377.447483  Gnorm:     11.161206  CPU:    0.276
 Perform trimming
 Line minimisation2
 ALPHA BEFORE:   0.15505738770228303     
  ** Opt : line minimisation
left   ...       0.00000000    -377.44748323
centre ...       0.03876435    -386.07406111
right  ...       0.07752869    -393.06528538

left   ...       0.00000000    -377.44748323
centre ...       0.03876435    -386.07406111
right  ...       0.07752869    -393.06528538
new    ...       0.17752869    -402.36285960

__s__    ...       0.10000000

left   ...       0.03876435    -386.07406111
centre ...       0.07752869    -393.06528538
right  ...       0.17752869    -402.36285960
new    ...       0.20135728    -402.33200699

__s__    ...       0.02382858

 ALPHA AFTER:   0.17752869385114151     
  Cycle:     45 Energy:      -402.362860  Gnorm:      6.830304  CPU:    0.280
 Line minimisation2
 ALPHA BEFORE:   0.17752869385114151     
  ** Opt : line minimisation
left   ...       0.00000000    -402.36285960
centre ...       0.04438217    -406.40847324
right  ...       0.08876435    -408.72833842

left   ...       0.00000000    -402.36285960
centre ...       0.04438217    -406.40847324
right  ...       0.08876435    -408.72833842
new    ...       0.12623471    -409.36998562

__s__    ...       0.03747037

left   ...       0.04438217    -406.40847324
centre ...       0.08876435    -408.72833842
right  ...       0.12623471    -409.36998562
new    ...       0.12743992    -409.37088794

__s__    ...       0.00120521

 ALPHA AFTER:   0.12743992021683806     
  Cycle:     46 Energy:      -409.370888  Gnorm:      5.399148  CPU:    0.283
 Line minimisation2
 ALPHA BEFORE:   0.12743992021683806     
  ** Opt : line minimisation
left   ...       0.00000000    -409.37088794
centre ...       0.03185998    -411.35777824
right  ...       0.06371996    -413.03781882

left   ...       0.00000000    -409.37088794
centre ...       0.03185998    -411.35777824
right  ...       0.06371996    -413.03781882
new    ...       0.16371996    -416.31250564

__s__    ...       0.10000000

left   ...       0.03185998    -411.35777824
centre ...       0.06371996    -413.03781882
right  ...       0.16371996    -416.31250564
new    ...       0.22175029    -416.77156510

__s__    ...       0.05803033

 ALPHA AFTER:   0.22175028687963563     
  Cycle:     47 Energy:      -416.771565  Gnorm:      5.238478  CPU:    0.287
 Line minimisation2
 ALPHA BEFORE:   0.22175028687963563     
  ** Opt : line minimisation
left   ...       0.00000000    -416.77156510
centre ...       0.05543757    -419.50740461
right  ...       0.11087514    -420.95582487

left   ...       0.00000000    -416.77156510
centre ...       0.05543757    -419.50740461
right  ...       0.11087514    -420.95582487
new    ...       0.14552679    -421.24794267

__s__    ...       0.03465165

 ALPHA AFTER:   0.14552679482577818     
  Cycle:     48 Energy:      -421.247943  Gnorm:      4.800424  CPU:    0.290
 Line minimisation2
 ALPHA BEFORE:   0.14552679482577818     
  ** Opt : line minimisation
left   ...       0.00000000    -421.24794267
centre ...       0.03638170    -422.89699478
right  ...       0.07276340    -423.85260993

left   ...       0.00000000    -421.24794267
centre ...       0.03638170    -422.89699478
right  ...       0.07276340    -423.85260993
new    ...       0.10470963    -424.08141930

__s__    ...       0.03194623

 ALPHA AFTER:   0.10470962601184811     
  Cycle:     49 Energy:      -424.081419  Gnorm:      3.623555  CPU:    0.293
 Line minimisation2
 ALPHA BEFORE:   0.10470962601184811     
  ** Opt : line minimisation
left   ...       0.00000000    -424.08141930
centre ...       0.02617741    -424.77242906
right  ...       0.05235481    -425.26514129

left   ...       0.00000000    -424.08141930
centre ...       0.02617741    -424.77242906
right  ...       0.05235481    -425.26514129
new    ...       0.10430942    -425.65777718

__s__    ...       0.05195461

left   ...       0.02617741    -424.77242906
centre ...       0.05235481    -425.26514129
right  ...       0.10430942    -425.65777718
new    ...       0.10454068    -425.65778352

__s__    ...       0.00023126

 ALPHA AFTER:   0.10454067997215513     
  Cycle:     50 Energy:      -425.657784  Gnorm:      3.149767  CPU:    0.296
 Line minimisation2
 ALPHA BEFORE:   0.10454067997215513     
  ** Opt : line minimisation
left   ...       0.00000000    -425.65778352
centre ...       0.02613517    -426.20693938
right  ...       0.05227034    -426.66144994

left   ...       0.00000000    -425.65778352
centre ...       0.02613517    -426.20693938
right  ...       0.05227034    -426.66144994
new    ...       0.15227034    -427.43116739

__s__    ...       0.10000000

left   ...       0.02613517    -426.20693938
centre ...       0.05227034    -426.66144994
right  ...       0.15227034    -427.43116739
new    ...       0.15234903    -427.43111107

__s__    ...       0.00007869

 ALPHA AFTER:   0.15227033998607759     
  Cycle:     51 Energy:      -427.431167  Gnorm:      3.411781  CPU:    0.300
 Perform trimming
 Line minimisation2
 ALPHA BEFORE:   0.15227033998607759     
  ** Opt : line minimisation
left   ...       0.00000000    -427.43116739
centre ...       0.03806758    -428.27555796
right  ...       0.07613517    -428.90294159

left   ...       0.00000000    -427.43116739
centre ...       0.03806758    -428.27555796
right  ...       0.07613517    -428.90294159
new    ...       0.16715768    -429.54523354

__s__    ...       0.09102251

left   ...       0.03806758    -428.27555796
centre ...       0.07613517    -428.90294159
right  ...       0.16715768    -429.54523354
new    ...       0.16997389    -429.54621035

__s__    ...       0.00281621

 ALPHA AFTER:   0.16997388794130569     
  Cycle:     52 Energy:      -429.546210  Gnorm:      2.496662  CPU:    0.303
 Line minimisation2
 ALPHA BEFORE:   0.16997388794130569     
  ** Opt : line minimisation
left   ...       0.00000000    -429.54621035
centre ...       0.04249347    -430.13171774
right  ...       0.08498694    -430.66326128

left   ...       0.00000000    -429.54621035
centre ...       0.04249347    -430.13171774
right  ...       0.08498694    -430.66326128
new    ...       0.18498694    -431.71551550

__s__    ...       0.10000000

left   ...       0.04249347    -430.13171774
centre ...       0.08498694    -430.66326128
right  ...       0.18498694    -431.71551550
new    ...       0.28498694    -432.50903435

__s__    ...       0.10000000

left   ...       0.08498694    -430.66326128
centre ...       0.18498694    -431.71551550
right  ...       0.28498694    -432.50903435
new    ...       0.38498694    -433.05764572

__s__    ...       0.10000000

left   ...       0.18498694    -431.71551550
centre ...       0.28498694    -432.50903435
right  ...       0.38498694    -433.05764572
new    ...       0.48498694    -433.36363739

__s__    ...       0.10000000

 ALPHA AFTER:   0.48498694397065278     
  Cycle:     53 Energy:      -433.363637  Gnorm:      5.357615  CPU:    0.309
 Perform trimming
 Line minimisation2
 ALPHA BEFORE:   0.48498694397065278     
  ** Opt : line minimisation
left   ...       0.00000000    -433.36363739
centre ...       0.10000000    -435.44437745
right  ...       0.20000000    -436.86360214

left   ...       0.00000000    -433.36363739
centre ...       0.10000000    -435.44437745
right  ...       0.20000000    -436.86360214
new    ...       0.30000000    -437.38619517

__s__    ...       0.10000000

left   ...       0.10000000    -435.44437745
centre ...       0.20000000    -436.86360214
right  ...       0.30000000    -437.38619517
new    ...       0.30828403    -437.37680758

__s__    ...       0.00828403

 ALPHA AFTER:   0.30000000000000004     
  Cycle:     54 Energy:      -437.386195  Gnorm:      4.212216  CPU:    0.312
 Line minimisation2
 ALPHA BEFORE:   0.30000000000000004     
  ** Opt : line minimisation
left   ...       0.00000000    -437.38619517
centre ...       0.07500000    -439.74432601
right  ...       0.15000000    -440.59587241

left   ...       0.00000000    -437.38619517
centre ...       0.07500000    -439.74432601
right  ...       0.15000000    -440.59587241
new    ...       0.15489124    -440.59416315

__s__    ...       0.00489124

 ALPHA AFTER:   0.15000000000000002     
  Cycle:     55 Energy:      -440.595872  Gnorm:      3.199762  CPU:    0.315
 Line minimisation2
 ALPHA BEFORE:   0.15000000000000002     
  ** Opt : line minimisation
left   ...       0.00000000    -440.59587241
centre ...       0.03750000    -441.34217719
right  ...       0.07500000    -441.79011897

left   ...       0.00000000    -440.59587241
centre ...       0.03750000    -441.34217719
right  ...       0.07500000    -441.79011897
new    ...       0.11254993    -441.92873603

__s__    ...       0.03754993

 ALPHA AFTER:   0.11254993365758095     
  Cycle:     56 Energy:      -441.928736  Gnorm:      2.570286  CPU:    0.318
 Line minimisation2
 ALPHA BEFORE:   0.11254993365758095     
  ** Opt : line minimisation
left   ...       0.00000000    -441.92873603
centre ...       0.02813748    -442.30234590
right  ...       0.05627497    -442.58561111

left   ...       0.00000000    -441.92873603
centre ...       0.02813748    -442.30234590
right  ...       0.05627497    -442.58561111
new    ...       0.13042804    -442.88951569

__s__    ...       0.07415307

left   ...       0.02813748    -442.30234590
centre ...       0.05627497    -442.58561111
right  ...       0.13042804    -442.88951569
new    ...       0.12846900    -442.88987241

__s__    ...      -0.00195904

 ALPHA AFTER:   0.12846899731884479     
  Cycle:     57 Energy:      -442.889872  Gnorm:      2.434284  CPU:    0.322
 Line minimisation2
 ALPHA BEFORE:   0.12846899731884479     
  ** Opt : line minimisation
left   ...       0.00000000    -442.88987241
[...]
new    ...       0.40000000    -470.17801232

__s__    ...       0.10000000

left   ...       0.20000000    -470.17671963
centre ...       0.30000000    -470.17739651
right  ...       0.40000000    -470.17801232
new    ...       0.50000000    -470.17855029

__s__    ...       0.10000000

 ALPHA AFTER:   0.50000000000000000     
  Cycle:    139 Energy:      -470.178550  Gnorm:      0.024760  CPU:    0.776
 Line minimisation2
 ALPHA BEFORE:   0.49455209267660061     
  ** Opt : line minimisation
left   ...       0.00000000    -470.17855029
centre ...       0.10000000    -470.17906456
right  ...       0.20000000    -470.17954075

left   ...       0.00000000    -470.17855029
centre ...       0.10000000    -470.17906456
right  ...       0.20000000    -470.17954075
new    ...       0.30000000    -470.17998063

__s__    ...       0.10000000

left   ...       0.10000000    -470.17906456
centre ...       0.20000000    -470.17954075
right  ...       0.30000000    -470.17998063
new    ...       0.40000000    -470.18038642

__s__    ...       0.10000000

left   ...       0.20000000    -470.17954075
centre ...       0.30000000    -470.17998063
right  ...       0.40000000    -470.18038642
new    ...       0.50000000    -470.18076029

__s__    ...       0.10000000

 ALPHA AFTER:   0.50000000000000000     
  Cycle:    140 Energy:      -470.180760  Gnorm:      0.015141  CPU:    0.784
 Line minimisation2
 ALPHA BEFORE:   0.51860685434241149     
  ** Opt : line minimisation
left   ...       0.00000000    -470.18076029
centre ...       0.10000000    -470.18115390
right  ...       0.20000000    -470.18154629

left   ...       0.00000000    -470.18076029
centre ...       0.10000000    -470.18115390
right  ...       0.20000000    -470.18154629
new    ...       0.30000000    -470.18190161

__s__    ...       0.10000000

left   ...       0.10000000    -470.18115390
centre ...       0.20000000    -470.18154629
right  ...       0.30000000    -470.18190161
new    ...       0.40000000    -470.18241646

__s__    ...       0.10000000

left   ...       0.20000000    -470.18154629
centre ...       0.30000000    -470.18190161
right  ...       0.40000000    -470.18241646
new    ...       0.50000000    -470.18258766

__s__    ...       0.10000000

 ALPHA AFTER:   0.50000000000000000     
  Cycle:    141 Energy:      -470.182588  Gnorm:      0.012904  CPU:    0.791
 Line minimisation2
 ALPHA BEFORE:   0.33333333333333331     
  ** Opt : line minimisation
left   ...       0.00000000    -470.18258766
centre ...       0.08333333    -470.18317272
right  ...       0.16666667    -470.18358002

left   ...       0.00000000    -470.18258766
centre ...       0.08333333    -470.18317272
right  ...       0.16666667    -470.18358002
new    ...       0.26666667    -470.18406924

__s__    ...       0.10000000

left   ...       0.08333333    -470.18317272
centre ...       0.16666667    -470.18358002
right  ...       0.26666667    -470.18406924
new    ...       0.36666667    -470.18454519

__s__    ...       0.10000000

left   ...       0.16666667    -470.18358002
centre ...       0.26666667    -470.18406924
right  ...       0.36666667    -470.18454519
new    ...       0.46666667    -470.18520761

__s__    ...       0.10000000

left   ...       0.26666667    -470.18406924
centre ...       0.36666667    -470.18454519
right  ...       0.46666667    -470.18520761
new    ...       0.56666667    -470.18569199

__s__    ...       0.10000000

 ALPHA AFTER:   0.56666666666666665     
  Cycle:    142 Energy:      -470.185692  Gnorm:      0.018168  CPU:    0.800
  ** Hessian calculated **
 Line minimisation2
 ALPHA BEFORE:    1.0000000000000000     
  ** Opt : line minimisation
left   ...       0.00000000    -470.18569199
centre ...       0.10000000    -470.18577454
right  ...       0.20000000    -470.18584451

left   ...       0.00000000    -470.18569199
centre ...       0.10000000    -470.18577454
right  ...       0.20000000    -470.18584451
new    ...       0.30000000    -470.18592112

__s__    ...       0.10000000

left   ...       0.10000000    -470.18577454
centre ...       0.20000000    -470.18584451
right  ...       0.30000000    -470.18592112
new    ...       0.40000000    -470.18596593

__s__    ...       0.10000000

 ALPHA AFTER:   0.40000000000000002     
  Cycle:    143 Energy:      -470.185966  Gnorm:      0.011165  CPU:    0.808
 Line minimisation2
 ALPHA BEFORE:   0.33152698949670234     
  ** Opt : line minimisation
left   ...       0.00000000    -470.18596593
centre ...       0.08288175    -470.18601340
right  ...       0.16576349    -470.18605720

left   ...       0.00000000    -470.18596593
centre ...       0.08288175    -470.18601340
right  ...       0.16576349    -470.18605720
new    ...       0.26576349    -470.18610514

__s__    ...       0.10000000

left   ...       0.08288175    -470.18601340
centre ...       0.16576349    -470.18605720
right  ...       0.26576349    -470.18610514
new    ...       0.36576349    -470.18614773

__s__    ...       0.10000000

left   ...       0.16576349    -470.18605720
centre ...       0.26576349    -470.18610514
right  ...       0.36576349    -470.18614773
new    ...       0.46576349    -470.18618497

__s__    ...       0.10000000

 ALPHA AFTER:   0.46576349474835110     
  Cycle:    144 Energy:      -470.186185  Gnorm:      0.010017  CPU:    0.815
 Line minimisation2
 ALPHA BEFORE:   0.34080325812610501     
  ** Opt : line minimisation
left   ...       0.00000000    -470.18618497
centre ...       0.08520081    -470.18623764
right  ...       0.17040163    -470.18628650

left   ...       0.00000000    -470.18618497
centre ...       0.08520081    -470.18623764
right  ...       0.17040163    -470.18628650
new    ...       0.27040163    -470.18633900

__s__    ...       0.10000000

left   ...       0.08520081    -470.18623764
centre ...       0.17040163    -470.18628650
right  ...       0.27040163    -470.18633900
new    ...       0.37040163    -470.18638629

__s__    ...       0.10000000

left   ...       0.17040163    -470.18628650
centre ...       0.27040163    -470.18633900
right  ...       0.37040163    -470.18638629
new    ...       0.47040163    -470.18642837

__s__    ...       0.10000000

 ALPHA AFTER:   0.47040162906305250     
  Cycle:    145 Energy:      -470.186428  Gnorm:      0.010878  CPU:    0.823
 Line minimisation2
 ALPHA BEFORE:   0.31360108604203502     
  ** Opt : line minimisation
left   ...       0.00000000    -470.18642837
centre ...       0.07840027    -470.18648939
right  ...       0.15680054    -470.18654642

left   ...       0.00000000    -470.18642837
centre ...       0.07840027    -470.18648939
right  ...       0.15680054    -470.18654642
new    ...       0.25680054    -470.18661340

__s__    ...       0.10000000

left   ...       0.07840027    -470.18648939
centre ...       0.15680054    -470.18654642
right  ...       0.25680054    -470.18661340
new    ...       0.35680054    -470.18667396

__s__    ...       0.10000000

left   ...       0.15680054    -470.18654642
centre ...       0.25680054    -470.18661340
right  ...       0.35680054    -470.18667396
new    ...       0.45680054    -470.18672813

__s__    ...       0.10000000

 ALPHA AFTER:   0.45680054302101747     
  Cycle:    146 Energy:      -470.186728  Gnorm:      0.012588  CPU:    0.830
 Line minimisation2
 ALPHA BEFORE:   0.30453369534734498     
  ** Opt : line minimisation
left   ...       0.00000000    -470.18672813
centre ...       0.07613342    -470.18680475
right  ...       0.15226685    -470.18687693

left   ...       0.00000000    -470.18672813
centre ...       0.07613342    -470.18680475
right  ...       0.15226685    -470.18687693
new    ...       0.25226685    -470.18696507

__s__    ...       0.10000000

left   ...       0.07613342    -470.18680475
centre ...       0.15226685    -470.18687693
right  ...       0.25226685    -470.18696507
new    ...       0.35226685    -470.18704570

__s__    ...       0.10000000

left   ...       0.15226685    -470.18687693
centre ...       0.25226685    -470.18696507
right  ...       0.35226685    -470.18704570
new    ...       0.45226685    -470.18711895

__s__    ...       0.10000000

 ALPHA AFTER:   0.45226684767367242     
  Cycle:    147 Energy:      -470.187119  Gnorm:      0.014008  CPU:    0.837
 Line minimisation2
 ALPHA BEFORE:   0.30151123178244826     
  ** Opt : line minimisation
left   ...       0.00000000    -470.18711895
centre ...       0.07537781    -470.18722698
right  ...       0.15075562    -470.18732930

left   ...       0.00000000    -470.18711895
centre ...       0.07537781    -470.18722698
right  ...       0.15075562    -470.18732930
new    ...       0.25075562    -470.18728152

__s__    ...       0.10000000

left   ...       0.07537781    -470.18722698
centre ...       0.15075562    -470.18732930
right  ...       0.25075562    -470.18728152
new    ...       0.17792512    -470.18718983

__s__    ...      -0.07283050

left   ...       0.07537781    -470.18722698
centre ...       0.15075562    -470.18732930
right  ...       0.17792512    -470.18718983
new    ...       0.12378901    -470.18729334

__s__    ...      -0.05413611

left   ...       0.12378901    -470.18729334
centre ...       0.15075562    -470.18732930
right  ...       0.17792512    -470.18718983
new    ...       0.14285305    -470.18731884

__s__    ...       0.01906404

 ALPHA AFTER:   0.15075561589122413     
  Cycle:    148 Energy:      -470.187329  Gnorm:      0.014128  CPU:    0.846
 Line minimisation2
 ALPHA BEFORE:   0.10050374392748276     
  ** Opt : line minimisation
left   ...       0.00000000    -470.18732930
centre ...       0.02512594    -470.18720931
right  ...      -0.02512594    -470.18727363

left   ...      -0.02512594    -470.18727363
centre ...       0.00000000    -470.18732930
right  ...       0.02512594    -470.18720931
new    ...      -0.00460048    -470.18731916

__s__    ...       0.02052546

left   ...      -0.00460048    -470.18731916
centre ...       0.00000000    -470.18732930
right  ...       0.02512594    -470.18720931
new    ...       0.00239344    -470.18715957

__s__    ...       0.00699392

left   ...      -0.00460048    -470.18731916
centre ...       0.00000000    -470.18732930
right  ...       0.00239344    -470.18715957
new    ...      -0.00219482    -470.18732446

__s__    ...      -0.00458826

left   ...      -0.00219482    -470.18732446
centre ...       0.00000000    -470.18732930
right  ...       0.00239344    -470.18715957
new    ...      -0.00102829    -470.18732703

__s__    ...       0.00116653

left   ...      -0.00102829    -470.18732703
centre ...       0.00000000    -470.18732930
right  ...       0.00239344    -470.18715957
new    ...      -0.00046262    -470.18732828

__s__    ...       0.00056568

left   ...      -0.00046262    -470.18732828
centre ...       0.00000000    -470.18732930
right  ...       0.00239344    -470.18715957
new    ...      -0.00018830    -470.18732888

__s__    ...       0.00027431

 ALPHA AFTER:   -1.8830385574291687E-004
  Cycle:    149 Energy:      -470.187329  Gnorm:      0.014128  CPU:    0.857
  ** Hessian calculated **
 Line minimisation2
 ALPHA BEFORE:    1.0000000000000000     
  ** Opt : line minimisation
left   ...       0.00000000    -470.18732930
centre ...       0.10000000    -470.18720089
right  ...      -0.10000000    -470.18727900

left   ...      -0.10000000    -470.18727900
centre ...       0.00000000    -470.18732930
right  ...       0.10000000    -470.18720089
new    ...      -0.02185463    -470.18731862

__s__    ...       0.07814537

left   ...      -0.02185463    -470.18731862
centre ...       0.00000000    -470.18732930
right  ...       0.10000000    -470.18720089
new    ...       0.00586046    -470.18715713

__s__    ...       0.02771508

left   ...      -0.02185463    -470.18731862
centre ...       0.00000000    -470.18732930
right  ...       0.00586046    -470.18715713
new    ...      -0.01070070    -470.18732409

__s__    ...      -0.01656116

left   ...      -0.01070070    -470.18732409
centre ...       0.00000000    -470.18732930
right  ...       0.00586046    -470.18715713
new    ...      -0.00521551    -470.18732677

__s__    ...       0.00548519

left   ...      -0.00521551    -470.18732677
centre ...       0.00000000    -470.18732930
right  ...       0.00586046    -470.18715713
new    ...      -0.00251776    -470.18732808

__s__    ...       0.00269775

 ALPHA AFTER:   -2.5177579279473429E-003
  Cycle:    150 Energy:      -470.187329  Gnorm:      0.014128  CPU:    0.869
  ** Hessian calculated **
 Line minimisation2
 ALPHA BEFORE:    1.0000000000000000     
  ** Opt : line minimisation
left   ...       0.00000000    -470.18732930
centre ...       0.10000000    -470.18720089
right  ...      -0.10000000    -470.18727900

left   ...      -0.10000000    -470.18727900
centre ...       0.00000000    -470.18732930
right  ...       0.10000000    -470.18720089
new    ...      -0.02185463    -470.18731862

__s__    ...       0.07814537

left   ...      -0.02185463    -470.18731862
centre ...       0.00000000    -470.18732930
right  ...       0.10000000    -470.18720089
new    ...       0.00586046    -470.18715713

__s__    ...       0.02771508

left   ...      -0.02185463    -470.18731862
centre ...       0.00000000    -470.18732930
right  ...       0.00586046    -470.18715713
new    ...      -0.01070070    -470.18732409

__s__    ...      -0.01656116

left   ...      -0.01070070    -470.18732409
centre ...       0.00000000    -470.18732930
right  ...       0.00586046    -470.18715713
new    ...      -0.00521551    -470.18732677

__s__    ...       0.00548519

left   ...      -0.00521551    -470.18732677
centre ...       0.00000000    -470.18732930
right  ...       0.00586046    -470.18715713
new    ...      -0.00251776    -470.18732808

__s__    ...       0.00269775

 ALPHA AFTER:   -2.5177579279473429E-003


  **** Conditions for a minimum have not been satisfied. However ****
  **** no lower point can be found - treat results with caution  ****
  **** unless gradient norm is small (less than 0.1)             ****


  Final energy =    -470.18732930 eV
  Final Gnorm  =       0.01412788

  Components of energy : 

--------------------------------------------------------------------------------
  Interatomic potentials     =          73.04882653 eV    
  Monopole - monopole (real) =        -281.20943930 eV    
  Monopole - monopole (recip)=        -262.02671652 eV    
  Monopole - monopole (total)=        -543.23615582 eV    
--------------------------------------------------------------------------------
  Total lattice energy       =        -470.18732930 eV    
--------------------------------------------------------------------------------
  Total lattice energy       =          -45365.8898 kJ/(mole unit cells)
--------------------------------------------------------------------------------

  Final fractional coordinates of atoms :

--------------------------------------------------------------------------------
   No.  Atomic        x           y          z          Radius
        Label       (Frac)      (Frac)     (Frac)       (Angs) 
--------------------------------------------------------------------------------
     1  O     c     0.000000    0.333330    0.000000    0.000000
     2  O     c     0.006444    0.941429    0.244409    0.000000
     3  O     c     0.497854    0.078342    0.244541    0.000000
     4  O     c     0.250985    0.633393    0.723747    0.000000
     5  O     c     0.981752    0.334351    0.257740    0.000000
     6  O     c     0.951284    0.840650    0.014797    0.000000
     7  O     c     0.483838    0.663690    0.905452    0.000000
     8  O     c     0.261604    0.467582    0.388668    0.000000
     9  O     c     0.913462    0.032108    0.522362    0.000000
    10  Sr    c     0.619478    0.631870    0.451358    0.000000
    11  Sr    c     0.394585    0.669998    0.155270    0.000000
    12  Sr    c     0.917687    0.849360    0.707568    0.000000
    13  Ti    c     0.886280    0.108173    0.143406    0.000000
    14  Ti    c     0.170805    0.605874    0.905031    0.000000
    15  Ti    c     0.131834    0.179335    0.351982    0.000000
--------------------------------------------------------------------------------

  Final Cartesian lattice vectors (Angstroms) :

        5.491542   -0.273046    1.221273
       -0.409570    5.720518   -0.156831
        3.663820   -0.313663   10.023063


  Final cell parameters and derivatives :

--------------------------------------------------------------------------------
       a            5.632326 Angstrom     dE/de1(xx)    -0.181162 eV/strain
       b            5.737305 Angstrom     dE/de2(yy)    -0.017135 eV/strain
       c           10.676318 Angstrom     dE/de3(zz)    -0.210771 eV/strain
       alpha       94.557195 Degrees      dE/de4(yz)     0.037575 eV/strain
       beta        57.344640 Degrees      dE/de5(xz)    -0.085627 eV/strain
       gamma       97.115304 Degrees      dE/de6(xy)    -0.000449 eV/strain
--------------------------------------------------------------------------------

  Primitive cell volume =           288.195292 Angs**3

  Density of cell =      3.171951 g/cm**3

  Non-primitive cell volume =           288.195292 Angs**3


  Final internal derivatives :

--------------------------------------------------------------------------------
   No.  Atomic          a             b             c           Radius
        Label          (eV)          (eV)          (eV)        (eV/Angs)
--------------------------------------------------------------------------------
      1 O     c       0.000000      0.000000      0.000000      0.000000
      2 O     c       0.042983     -0.049839      0.025955      0.000000
      3 O     c      -0.096800     -0.085210     -0.089462      0.000000
      4 O     c      -0.096139      0.000748      0.153862      0.000000
      5 O     c       0.003391     -0.054282     -0.013162      0.000000
      6 O     c       0.055593      0.125152     -0.074928      0.000000
      7 O     c      -0.049486      0.039927      0.034271      0.000000
      8 O     c       0.148666     -0.023348     -0.157174      0.000000
      9 O     c       0.000021     -0.008121      0.122332      0.000000
     10 Sr    c      -0.036290      0.121475      0.167511      0.000000
     11 Sr    c      -0.046906     -0.042628     -0.007587      0.000000
     12 Sr    c      -0.055826     -0.001470      0.144347      0.000000
     13 Ti    c      -0.094996     -0.023743      0.148281      0.000000
     14 Ti    c      -0.002833      0.250721     -0.069783      0.000000
     15 Ti    c       0.085804     -0.148575     -0.122565      0.000000
--------------------------------------------------------------------------------
  Maximum abs         0.148666      0.250721      0.167511      0.000000
--------------------------------------------------------------------------------


  Time to end of optimisation =       0.8805 seconds

 Exiting ------OPTIONS------

  Peak dynamic memory used =       0.60 MB 


  Timing analysis for GULP :

--------------------------------------------------------------------------------
  Task / Subroutine                                          Time (Seconds)
--------------------------------------------------------------------------------
  Calculation of reciprocal space energy and derivatives          0.0991
  Calculation of real space energy and derivatives                0.7628
  Calculation of matrix inversion                                 0.0003
  Global summation overhead                                       0.0005
--------------------------------------------------------------------------------
  Total CPU time                                                  0.8805
--------------------------------------------------------------------------------


  Job Finished at 12:05.44  4th February   2020                               

