********************************************************************************
*                       GENERAL UTILITY LATTICE PROGRAM                        *
*                                 Julian Gale                                  *
*                       Curtin Institute for Computation                       *
*                           Department of Chemistry                            *
*                    Curtin University, Western Australia                      *
********************************************************************************
* Version = 5.1.1 * Last modified =  25th August 2019                          *
********************************************************************************
*  optimise     - perform optimisation run                                     *
*  conp         - constant pressure calculation                                *
*  nosymmetry   - turn off symmetry after initial structure generation         *
*  full         - generate full unit cell when symmetry is removed             *
*  conjugate    - use conjugate gradients minimiser                            *
********************************************************************************
* ASE calculation                                                              *
********************************************************************************


  Job Started  at 13:26.50 21st February   2020                               

  Number of CPUs =     1


  Total number of configurations input =      1

********************************************************************************
*  Input for Configuration =   1                                               *
********************************************************************************

  Formula = O9Sr3Ti3                                                    

  Number of irreducible atoms/shells =      15


  Total number atoms/shells =      15

  Dimensionality = 3               :  Bulk   



  Cartesian lattice vectors (Angstroms) :

        4.000000    0.000000    0.000000
        0.000000    6.000000    0.000000
        0.000000    0.000000   12.000000

  Cell parameters (Angstroms/Degrees):

  a =       4.0000    alpha =  90.0000
  b =       6.0000    beta  =  90.0000
  c =      12.0000    gamma =  90.0000

  Initial cell volume =         288.000000 Angs**3

  Temperature of configuration =  0.000     K 

  Pressure of configuration =         0.000 GPa 

  Fractional coordinates of asymmetric unit :

--------------------------------------------------------------------------------
   No.  Atomic       x           y          z         Charge      Occupancy
        Label      (Frac)      (Frac)     (Frac)        (e)         (Frac)  
--------------------------------------------------------------------------------
      1 O     c    0.000000    0.333330    0.000000    -2.00000    1.000000    
      2 O     c    0.000000 *  0.666670 *  0.166670 *  -2.00000    1.000000    
      3 O     c    0.500000 *  0.666670 *  0.333330 *  -2.00000    1.000000    
      4 O     c    0.000000 *  0.666670 *  0.666670 *  -2.00000    1.000000    
      5 O     c    0.000000 *  0.333330 *  0.166670 *  -2.00000    1.000000    
      6 O     c    0.000000 *  0.666670 *  0.833330 *  -2.00000    1.000000    
      7 O     c    0.500000 *  0.666670 *  0.666670 *  -2.00000    1.000000    
      8 O     c    0.000000 *  0.333330 *  0.500000 *  -2.00000    1.000000    
      9 O     c    0.000000 *  0.000000 *  0.500000 *  -2.00000    1.000000    
     10 Sr    c    0.750000 *  0.500000 *  0.250000 *   2.00000    1.000000    
     11 Sr    c    0.750000 *  0.500000 *  0.916670 *   2.00000    1.000000    
     12 Sr    c    0.750000 *  0.833330 *  0.750000 *   2.00000    1.000000    
     13 Ti    c    0.750000 *  0.833330 *  0.083330 *   4.00000    1.000000    
     14 Ti    c    0.250000 *  0.500000 *  0.916670 *   4.00000    1.000000    
     15 Ti    c    0.250000 *  0.166670 *  0.250000 *   4.00000    1.000000    
--------------------------------------------------------------------------------



********************************************************************************
*  General input information                                                   *
********************************************************************************

  Species output for all configurations : 

--------------------------------------------------------------------------------
  Species    Type    Atomic    Atomic    Charge       Radii (Angs)     Library
                     Number     Mass       (e)     Cova   Ionic  VDW   Symbol
--------------------------------------------------------------------------------
    O        Core        8      16.00  -2.000000   0.730  0.000  1.360          
    Sr       Core       38      87.62   2.000000   1.120  0.000  1.670          
    Ti       Core       22      47.88   4.000000   1.470  0.000  2.190          
--------------------------------------------------------------------------------


  Lattice summation method               =    Ewald          (3-D)
                                         =    Parry          (2-D)
                                         =    Saunders et al (1-D)
  Accuracy factor for lattice sums       =   12.000


  Time limit = Infinity

  Maximum range for interatomic potentials =    100000.000000 Angstroms

  General interatomic potentials :

--------------------------------------------------------------------------------
Atom  Types   Potential      Parameter       Value         Units   Cutoffs(Ang)
  1     2                                                            Min /  Max 
--------------------------------------------------------------------------------
O    c Sr   c Buckingham    Buckingham A     1952.3900    eV        0.000 10.000
                            Buckingham rho  0.33685000    Ang       
                            Buckingham C     19.220000    eV*Ang^6  
--------------------------------------------------------------------------------
O    c Ti   c Buckingham    Buckingham A     4590.7279    eV        0.000 10.000
                            Buckingham rho  0.26100000    Ang       
                            Buckingham C     0.0000000    eV*Ang^6  
--------------------------------------------------------------------------------
O    c O    c Buckingham    Buckingham A     1388.7700    eV        0.000 10.000
                            Buckingham rho  0.36262000    Ang       
                            Buckingham C     175.00000    eV*Ang^6  
--------------------------------------------------------------------------------
 Calling ------OPTIONS------

********************************************************************************
*  Output for configuration   1                                                *
********************************************************************************


  Components of energy : 

--------------------------------------------------------------------------------
  Interatomic potentials     =         128.82078291 eV    
  Monopole - monopole (real) =         -97.95825989 eV    
  Monopole - monopole (recip)=        -103.78411368 eV    
  Monopole - monopole (total)=        -201.74237357 eV    
--------------------------------------------------------------------------------
  Total lattice energy       =         -72.92159066 eV    
--------------------------------------------------------------------------------
  Total lattice energy       =           -7035.8188 kJ/(mole unit cells)
--------------------------------------------------------------------------------


  Number of variables =       48

  Maximum number of calculations  =          1000
  Maximum Hessian update interval =            10
  Maximum step size               =   0.001000000
  Maximum parameter tolerance     =   0.000010000
  Maximum function  tolerance     =   0.000010000
  Maximum gradient  tolerance     =   0.001000000
  Maximum gradient  component     =   0.010000000

  Cell parameters to be optimised using strains

  Conjugate gradient optimiser to be used

  Lower half triangular hessian to be used

  Minimiser to switch to BFGS with exact hessian
  When gradient norm is less than     0.500000

  Switch max step size to       0.10000000 when gnorm is less than    10.000000

  Start of bulk optimisation :

  Cycle:      0 Energy:       -72.921591  Gnorm:     38.397228  CPU:    0.010
 Perform trimming
 ALPHA BEFORE:    1.0000000000000000     
 XC BEFORE:    0.0000000000000000     
  ** Opt : line minimisation
left   ...       0.00000000     -72.92159066
centre ...       0.00100000     -73.33514135
right  ...       0.00200000     -73.75269641

left   ...       0.00000000     -72.92159066
centre ...       0.00100000     -73.33514135
right  ...       0.00200000     -73.75269641
new    ...       0.00300000     -74.16953118

__s__    ...       0.00100000

left   ...       0.00100000     -73.33514135
centre ...       0.00200000     -73.75269641
right  ...       0.00300000     -74.16953118
new    ...       0.00400000     -74.58564607

__s__    ...       0.00100000

left   ...       0.00200000     -73.75269641
centre ...       0.00300000     -74.16953118
right  ...       0.00400000     -74.58564607
new    ...       0.00500000     -75.00104147

__s__    ...       0.00100000

 ALPHA AFTER:    5.0000000000000010E-003
 XC AFTER:    2.4033205586797279E-005
 SANITY CHECK:    5.0000000000000010E-003
 DIRECTION dim            1  value    4.8066411173594550E-003
 DIRECTION dim            2  value    2.6245860025078185E-002
 DIRECTION dim            3  value   -6.4186160447533530E-002
 DIRECTION dim            4  value   -5.3413381539174033E-003
 DIRECTION dim            5  value    9.0405344542321374E-003
 DIRECTION dim            6  value   -4.0724502500466914E-002
 DIRECTION dim            7  value    5.2027735099270120E-003
 DIRECTION dim            8  value   -7.4528272222324707E-003
 DIRECTION dim            9  value    1.6940207656340148E-002
 DIRECTION dim           10  value    5.6113520230007359E-003
 DIRECTION dim           11  value   -2.5258711591040584E-002
 DIRECTION dim           12  value   -2.2188994668591221E-002
 DIRECTION dim           13  value    1.0754892876455540E-002
 DIRECTION dim           14  value   -1.4996423770671915E-003
 DIRECTION dim           15  value    9.6191466640706810E-002
 DIRECTION dim           16  value   -5.2027735099270120E-003
 DIRECTION dim           17  value   -7.4751860686051632E-003
 DIRECTION dim           18  value    3.0956818837733727E-002
 DIRECTION dim           19  value    1.5010574757235909E-004
 DIRECTION dim           20  value    6.3410263317355787E-003
 DIRECTION dim           21  value   -2.7244552128989723E-002
 DIRECTION dim           22  value    1.4116122670236242E-004
 DIRECTION dim           23  value   -6.5975969307285297E-003
 DIRECTION dim           24  value   -2.5117454109588350E-002
 DIRECTION dim           25  value   -4.6836172807590195E-003
 DIRECTION dim           26  value   -2.8738286759152662E-003
 DIRECTION dim           27  value    6.9286573385622496E-002
 DIRECTION dim           28  value   -9.7487511577923798E-003
 DIRECTION dim           29  value   -5.0986418706693779E-003
 DIRECTION dim           30  value   -3.8445204609625673E-002
 DIRECTION dim           31  value   -4.7695641759509582E-003
 DIRECTION dim           32  value    2.2673333931312142E-002
 DIRECTION dim           33  value   -5.2772610715707151E-002
 DIRECTION dim           34  value    2.4254590827257646E-003
 DIRECTION dim           35  value   -2.6998145196442739E-004
 DIRECTION dim           36  value    3.6539644041657250E-002
 DIRECTION dim           37  value   -2.8208456363180258E-003
 DIRECTION dim           38  value   -5.9138191348975175E-003
 DIRECTION dim           39  value   -7.3859263984909954E-002
 DIRECTION dim           40  value   -2.0891041068107933E-003
 DIRECTION dim           41  value    4.7160584370865288E-003
 DIRECTION dim           42  value    9.7619164421767629E-002
 DIRECTION dim           43  value    5.4775054702306231E-002
 DIRECTION dim           44  value    3.8419364077706700E-002
 DIRECTION dim           45  value   -2.9735972111385560E-002
 DIRECTION dim           46  value    8.6644232173381467E-003
 DIRECTION dim           47  value   -2.3135148509363635E-003
 DIRECTION dim           48  value   -1.9248965628742096E-003
  Cycle:      1 Energy:       -75.001041  Gnorm:     38.068460  CPU:    0.021
 Perform trimming
 ALPHA BEFORE:    5.0000000000000010E-003
 XC BEFORE:    2.4033205586797279E-005
  ** Opt : line minimisation
left   ...       0.00000000     -75.00104147
centre ...       0.00100000     -75.62280123
right  ...       0.00200000     -76.24295561

left   ...       0.00000000     -75.00104147
centre ...       0.00100000     -75.62280123
right  ...       0.00200000     -76.24295561
new    ...       0.00300000     -76.86150604

__s__    ...       0.00100000

left   ...       0.00100000     -75.62280123
centre ...       0.00200000     -76.24295561
right  ...       0.00300000     -76.86150604
new    ...       0.00400000     -77.47845400

__s__    ...       0.00100000

left   ...       0.00200000     -76.24295561
centre ...       0.00300000     -76.86150604
right  ...       0.00400000     -77.47845400
new    ...       0.00500000     -78.09380099

__s__    ...       0.00100000

left   ...       0.00300000     -76.86150604
centre ...       0.00400000     -77.47845400
right  ...       0.00500000     -78.09380099
new    ...       0.00600000     -78.70754854

__s__    ...       0.00100000

left   ...       0.00400000     -77.47845400
centre ...       0.00500000     -78.09380099
right  ...       0.00600000     -78.70754854
new    ...       0.00700000     -79.31969821

__s__    ...       0.00100000

left   ...       0.00500000     -78.09380099
centre ...       0.00600000     -78.70754854
right  ...       0.00700000     -79.31969821
new    ...       0.00800000     -79.93025160

__s__    ...       0.00100000

 ALPHA AFTER:    8.0000000000000019E-003
 XC AFTER:    8.1275717214790335E-005
 SANITY CHECK:    8.0000000000000019E-003
 DIRECTION dim            1  value    7.1553139534991303E-003
 DIRECTION dim            2  value    3.9333727029709976E-002
 DIRECTION dim            3  value   -9.6025431338991621E-002
 DIRECTION dim            4  value   -8.1973452148894951E-003
 DIRECTION dim            5  value    1.3866007212019721E-002
 DIRECTION dim            6  value   -6.1122854021532370E-002
 DIRECTION dim            7  value    7.9238319376108857E-003
 DIRECTION dim            8  value   -1.1386699395276506E-002
 DIRECTION dim            9  value    2.5643437577578570E-002
 DIRECTION dim           10  value    8.4303561064744438E-003
 DIRECTION dim           11  value   -3.8078373151482950E-002
 DIRECTION dim           12  value   -3.2486901302094306E-002
 DIRECTION dim           13  value    1.6122053224077650E-002
 DIRECTION dim           14  value   -1.6050108435576699E-003
 DIRECTION dim           15  value   0.14358984448874521     
 DIRECTION dim           16  value   -7.9421770780289894E-003
 DIRECTION dim           17  value   -1.1452028033389188E-002
 DIRECTION dim           18  value    4.6687763855734622E-002
 DIRECTION dim           19  value    2.3154882257161842E-004
 DIRECTION dim           20  value    9.5818759528432419E-003
 DIRECTION dim           21  value   -4.1285295764805621E-002
 DIRECTION dim           22  value    2.1862150534957391E-004
 DIRECTION dim           23  value   -9.9661915308101225E-003
 DIRECTION dim           24  value   -3.8039551957627697E-002
 DIRECTION dim           25  value   -6.6657542099621513E-003
 DIRECTION dim           26  value   -4.4409291427319414E-003
 DIRECTION dim           27  value   0.10360311931880804     
 DIRECTION dim           28  value   -1.4845818426133079E-002
 DIRECTION dim           29  value   -7.9511843237231906E-003
 DIRECTION dim           30  value   -5.7456772217094464E-002
 DIRECTION dim           31  value   -7.0043647905903006E-003
 DIRECTION dim           32  value    3.4234710007923594E-002
 DIRECTION dim           33  value   -7.8845961207823972E-002
 DIRECTION dim           34  value    3.6054708229166094E-003
 DIRECTION dim           35  value   -4.0494296070843787E-004
 DIRECTION dim           36  value    5.4849527691349514E-002
 DIRECTION dim           37  value   -4.2191252415360340E-003
 DIRECTION dim           38  value   -9.0543008002845777E-003
 DIRECTION dim           39  value  -0.11100970540828041     
 DIRECTION dim           40  value   -3.2307598541361456E-003
 DIRECTION dim           41  value    7.1808607307821013E-003
 DIRECTION dim           42  value   0.14695848498862132     
 DIRECTION dim           43  value    8.2458806111333174E-002
 DIRECTION dim           44  value    5.7759456892857046E-002
 DIRECTION dim           45  value   -4.4638515603298463E-002
 DIRECTION dim           46  value    1.3137957316172623E-002
 DIRECTION dim           47  value   -3.4667829671796838E-003
 DIRECTION dim           48  value   -2.8928010505042579E-003
  Cycle:      2 Energy:       -79.930252  Gnorm:     37.290418  CPU:    0.032
 Perform trimming
 ALPHA BEFORE:    8.0000000000000019E-003
 XC BEFORE:    8.1275717214790335E-005
  ** Opt : line minimisation
left   ...       0.00000000     -79.93025160
centre ...       0.00100000     -80.84320481
right  ...       0.00200000     -81.75263759

left   ...       0.00000000     -79.93025160
centre ...       0.00100000     -80.84320481
right  ...       0.00200000     -81.75263759
new    ...       0.00300000     -82.65855568

__s__    ...       0.00100000

left   ...       0.00100000     -80.84320481
centre ...       0.00200000     -81.75263759
right  ...       0.00300000     -82.65855568
new    ...       0.00400000     -83.56096494

__s__    ...       0.00100000

left   ...       0.00200000     -81.75263759
centre ...       0.00300000     -82.65855568
right  ...       0.00400000     -83.56096494
new    ...       0.00500000     -84.45987142

__s__    ...       0.00100000

left   ...       0.00300000     -82.65855568
centre ...       0.00400000     -83.56096494
right  ...       0.00500000     -84.45987142
new    ...       0.00600000     -85.35528129

__s__    ...       0.00100000

left   ...       0.00400000     -83.56096494
centre ...       0.00500000     -84.45987142
right  ...       0.00600000     -85.35528129
new    ...       0.00700000     -86.24720087

__s__    ...       0.00100000

left   ...       0.00500000     -84.45987142
centre ...       0.00600000     -85.35528129
right  ...       0.00700000     -86.24720087
new    ...       0.00800000     -87.13563666

__s__    ...       0.00100000

 ALPHA AFTER:    8.0000000000000019E-003
 XC AFTER:    1.6572535577784076E-004
 SANITY CHECK:    7.9999999999999984E-003
 DIRECTION dim            1  value    1.0556204820381306E-002
 DIRECTION dim            2  value    5.8865851998928978E-002
 DIRECTION dim            3  value  -0.14306171123861119     
 DIRECTION dim            4  value   -1.2984281978665519E-002
 DIRECTION dim            5  value    2.1933994661779033E-002
 DIRECTION dim            6  value   -9.1805434963223589E-002
 DIRECTION dim            7  value    1.2325918347513162E-002
 DIRECTION dim            8  value   -1.7846484673843178E-002
 DIRECTION dim            9  value    3.9316635235308983E-002
 DIRECTION dim           10  value    1.2694420284422185E-002
 DIRECTION dim           11  value   -5.7811377193348341E-002
 DIRECTION dim           12  value   -4.5803224206791983E-002
 DIRECTION dim           13  value    2.4145809558261008E-002
 DIRECTION dim           14  value   -5.9693318275741394E-006
 DIRECTION dim           15  value   0.21276883864259241     
 DIRECTION dim           16  value   -1.2422595637570729E-002
 DIRECTION dim           17  value   -1.8064828846196212E-002
 DIRECTION dim           18  value    7.0962438873669084E-002
 DIRECTION dim           19  value    3.7155195701291067E-004
 DIRECTION dim           20  value    1.4627734644711753E-002
 DIRECTION dim           21  value   -6.3465331118816054E-002
 DIRECTION dim           22  value    3.5398781297809727E-004
 DIRECTION dim           23  value   -1.5201797846114154E-002
 DIRECTION dim           24  value   -5.8392298882394431E-002
 DIRECTION dim           25  value   -8.6878002208772859E-003
 DIRECTION dim           26  value   -7.1604623265820577E-003
 DIRECTION dim           27  value   0.15419354059398208     
 DIRECTION dim           28  value   -2.3096191094848409E-002
 DIRECTION dim           29  value   -1.3054396703941156E-002
 DIRECTION dim           30  value   -8.5405062190378689E-002
 DIRECTION dim           31  value   -9.9698274590490233E-003
 DIRECTION dim           32  value    5.2209011761276722E-002
 DIRECTION dim           33  value  -0.11711927496613320     
 DIRECTION dim           34  value    5.2748289207147281E-003
 DIRECTION dim           35  value   -5.9002460149883119E-004
 DIRECTION dim           36  value    8.2383669478324595E-002
 DIRECTION dim           37  value   -6.2562263155712481E-003
 DIRECTION dim           38  value   -1.4284431359141415E-002
 DIRECTION dim           39  value  -0.16726491051634770     
 DIRECTION dim           40  value   -5.1973327704486092E-003
 DIRECTION dim           41  value    1.1148883717963581E-002
 DIRECTION dim           42  value   0.22236915057766418     
 DIRECTION dim           43  value   0.12477775299059994     
 DIRECTION dim           44  value    8.7131081140386965E-002
 DIRECTION dim           45  value   -6.7100665657212663E-002
 DIRECTION dim           46  value    2.0217304766122799E-002
 DIRECTION dim           47  value   -5.1780504859038753E-003
 DIRECTION dim           48  value   -4.3713123531176632E-003
  Cycle:      3 Energy:       -87.135637  Gnorm:     36.158626  CPU:    0.039
 Perform trimming
 ALPHA BEFORE:    8.0000000000000019E-003
 XC BEFORE:    1.6572535577784076E-004
  ** Opt : line minimisation
left   ...       0.00000000     -87.13563666
centre ...       0.00100000     -88.46216845
right  ...       0.00200000     -89.78111865

left   ...       0.00000000     -87.13563666
centre ...       0.00100000     -88.46216845
right  ...       0.00200000     -89.78111865
new    ...       0.00300000     -91.09251067

__s__    ...       0.00100000

left   ...       0.00100000     -88.46216845
centre ...       0.00200000     -89.78111865
right  ...       0.00300000     -91.09251067
new    ...       0.00400000     -92.39636866

__s__    ...       0.00100000

left   ...       0.00200000     -89.78111865
centre ...       0.00300000     -91.09251067
right  ...       0.00400000     -92.39636866
new    ...       0.00500000     -93.69271744

__s__    ...       0.00100000

left   ...       0.00300000     -91.09251067
centre ...       0.00400000     -92.39636866
right  ...       0.00500000     -93.69271744
new    ...       0.00600000     -94.98158258

__s__    ...       0.00100000

left   ...       0.00400000     -92.39636866
centre ...       0.00500000     -93.69271744
right  ...       0.00600000     -94.98158258
new    ...       0.00700000     -96.26297114

__s__    ...       0.00100000

left   ...       0.00500000     -93.69271744
centre ...       0.00600000     -94.98158258
right  ...       0.00700000     -96.26297114
new    ...       0.00800000     -97.53692933

__s__    ...       0.00100000

 ALPHA AFTER:    8.0000000000000019E-003
 XC AFTER:    2.8988427765989228E-004
 SANITY CHECK:    8.0000000000000019E-003
 DIRECTION dim            1  value    1.5519865235256437E-002
 DIRECTION dim            2  value    8.7944201927575849E-002
 DIRECTION dim            3  value  -0.21213714574452022     
 DIRECTION dim            4  value   -2.1100866292314339E-002
 DIRECTION dim            5  value    3.5587977310821278E-002
 DIRECTION dim            6  value  -0.13793198060392711     
 DIRECTION dim            7  value    1.9509570966048606E-002
 DIRECTION dim            8  value   -2.8566929563892743E-002
 DIRECTION dim            9  value    6.0919989595411950E-002
 DIRECTION dim           10  value    1.9154987137936477E-002
 DIRECTION dim           11  value   -8.8298511978367383E-002
 DIRECTION dim           12  value   -6.1917412510459208E-002
 DIRECTION dim           13  value    3.6122856347441272E-002
 DIRECTION dim           14  value    5.6998320274491941E-003
 DIRECTION dim           15  value   0.31289573563317902     
 DIRECTION dim           16  value   -1.9822198465548380E-002
 DIRECTION dim           17  value   -2.9186457136650492E-002
 DIRECTION dim           18  value   0.10861228072787753     
 DIRECTION dim           19  value    6.1703240926501727E-004
 DIRECTION dim           20  value    2.2516950405924430E-002
 DIRECTION dim           21  value   -9.8760071500776980E-002
 DIRECTION dim           22  value    5.9506940238166005E-004
 DIRECTION dim           23  value   -2.3370905028359121E-002
 DIRECTION dim           24  value   -9.0671818852925648E-002
 DIRECTION dim           25  value   -1.0030679237786668E-002
 DIRECTION dim           26  value   -1.1976536358538396E-002
 DIRECTION dim           27  value   0.22842531094046309     
 DIRECTION dim           28  value   -3.6593065187201110E-002
 DIRECTION dim           29  value   -2.2244245763125923E-002
 DIRECTION dim           30  value  -0.12627403053998945     
 DIRECTION dim           31  value   -1.3764631436508121E-002
 DIRECTION dim           32  value    8.0421498499927718E-002
 DIRECTION dim           33  value  -0.17300780279742045     
 DIRECTION dim           34  value    7.5457608192029436E-003
 DIRECTION dim           35  value   -7.7125904125733516E-004
 DIRECTION dim           36  value   0.12366623910538595     
 DIRECTION dim           37  value   -9.1031605526901236E-003
 DIRECTION dim           38  value   -2.3172035393034213E-002
 DIRECTION dim           39  value  -0.25238902962307819     
 DIRECTION dim           40  value   -8.5892964115819124E-003
 DIRECTION dim           41  value    1.7537184372302287E-002
 DIRECTION dim           42  value   0.33794702526133641     
 DIRECTION dim           43  value   0.18972335931466419     
 DIRECTION dim           44  value   0.13189127793346922     
 DIRECTION dim           45  value  -0.10102726532596300     
 DIRECTION dim           46  value    3.1473794359277558E-002
 DIRECTION dim           47  value   -7.6746986657223780E-003
 DIRECTION dim           48  value   -6.6826980860186045E-003
  Cycle:      4 Energy:       -97.536929  Gnorm:     34.548776  CPU:    0.046
 Perform trimming
 ALPHA BEFORE:    8.0000000000000019E-003
 XC BEFORE:    2.8988427765989228E-004
  ** Opt : line minimisation
left   ...       0.00000000     -97.53692933
centre ...       0.00100000     -99.43543116
right  ...       0.00200000    -101.31811981

left   ...       0.00000000     -97.53692933
centre ...       0.00100000     -99.43543116
right  ...       0.00200000    -101.31811981
new    ...       0.00300000    -103.18514965

__s__    ...       0.00100000

left   ...       0.00100000     -99.43543116
centre ...       0.00200000    -101.31811981
right  ...       0.00300000    -103.18514965
new    ...       0.00400000    -105.03656286

__s__    ...       0.00100000

left   ...       0.00200000    -101.31811981
centre ...       0.00300000    -103.18514965
right  ...       0.00400000    -105.03656286
new    ...       0.00500000    -106.87253940

__s__    ...       0.00100000

left   ...       0.00300000    -103.18514965
centre ...       0.00400000    -105.03656286
right  ...       0.00500000    -106.87253940
new    ...       0.00600000    -108.69316620

__s__    ...       0.00100000

left   ...       0.00400000    -105.03656286
centre ...       0.00500000    -106.87253940
right  ...       0.00600000    -108.69316620
new    ...       0.00700000    -110.49851415

__s__    ...       0.00100000

left   ...       0.00500000    -106.87253940
centre ...       0.00600000    -108.69316620
right  ...       0.00700000    -110.49851415
new    ...       0.00800000    -112.28869575

__s__    ...       0.00100000

 ALPHA AFTER:    8.0000000000000019E-003
 XC AFTER:    4.7283295595211463E-004
 SANITY CHECK:    8.0000000000000088E-003
 DIRECTION dim            1  value    2.2868584786527771E-002
 DIRECTION dim            2  value   0.13087710958909118     
 DIRECTION dim            3  value  -0.31171695231023910     
 DIRECTION dim            4  value   -3.5562594807577022E-002
 DIRECTION dim            5  value    5.9884318298579563E-002
 DIRECTION dim            6  value  -0.20720538865704732     
 DIRECTION dim            7  value    3.1657569156674746E-002
 DIRECTION dim            8  value   -4.7141906432425690E-002
 DIRECTION dim            9  value    9.5836295875856792E-002
 DIRECTION dim           10  value    2.8988666480657021E-002
 DIRECTION dim           11  value  -0.13603831296316557     
 DIRECTION dim           12  value   -7.6895903861624357E-002
 DIRECTION dim           13  value    5.3877201819618761E-002
 DIRECTION dim           14  value    2.2484029891000245E-002
 DIRECTION dim           15  value   0.45405625557772183     
 DIRECTION dim           16  value   -3.2546108463782204E-002
 DIRECTION dim           17  value   -4.8804183147920031E-002
 DIRECTION dim           18  value   0.16804278695236854     
 DIRECTION dim           19  value    1.0796873117297674E-003
 DIRECTION dim           20  value    3.5063644974476262E-002
 DIRECTION dim           21  value  -0.15648760918430343     
 DIRECTION dim           22  value    1.0575537652859450E-003
 DIRECTION dim           23  value   -3.6321850902574830E-002
 DIRECTION dim           24  value  -0.14321305884058416     
 DIRECTION dim           25  value   -8.1005801825373251E-003
 DIRECTION dim           26  value   -2.1136278843412248E-002
 DIRECTION dim           27  value   0.33568212890992111     
 DIRECTION dim           28  value   -5.9549424582664989E-002
 DIRECTION dim           29  value   -3.9771215750171965E-002
 DIRECTION dim           30  value  -0.18502334265566434     
 DIRECTION dim           31  value   -1.8016039762350122E-002
 DIRECTION dim           32  value   0.12596468033892283     
 DIRECTION dim           33  value  -0.25320530443134442     
 DIRECTION dim           34  value    1.0243048405360781E-002
 DIRECTION dim           35  value   -6.2070239161279188E-004
 DIRECTION dim           36  value   0.18511204190036981     
 DIRECTION dim           37  value   -1.2593133921511139E-002
 DIRECTION dim           38  value   -3.9265649035567653E-002
 DIRECTION dim           39  value  -0.38125713250091309     
 DIRECTION dim           40  value   -1.4681011325743206E-002
 DIRECTION dim           41  value    2.8002629359164581E-002
 DIRECTION dim           42  value   0.51685769577727891     
 DIRECTION dim           43  value   0.29062078330033614     
 DIRECTION dim           44  value   0.20077430944572877     
 DIRECTION dim           45  value  -0.15254479596174725     
 DIRECTION dim           46  value    4.9780852727413019E-002
 DIRECTION dim           47  value   -1.1146387001196884E-002
 DIRECTION dim           48  value   -1.0499433771736866E-002
  Cycle:      5 Energy:      -112.288696  Gnorm:     32.356181  CPU:    0.053
 ALPHA BEFORE:    8.0000000000000019E-003
 XC BEFORE:    4.7283295595211463E-004
  ** Opt : line minimisation
left   ...       0.00000000    -112.28869575
centre ...       0.00100000    -114.58455136
right  ...       0.00200000    -116.85763956

left   ...       0.00000000    -112.28869575
centre ...       0.00100000    -114.58455136
right  ...       0.00200000    -116.85763956
new    ...       0.00300000    -119.10799291

__s__    ...       0.00100000

left   ...       0.00100000    -114.58455136
centre ...       0.00200000    -116.85763956
right  ...       0.00300000    -119.10799291
new    ...       0.00400000    -121.33627169

__s__    ...       0.00100000

left   ...       0.00200000    -116.85763956
centre ...       0.00300000    -119.10799291
right  ...       0.00400000    -121.33627169
new    ...       0.00500000    -123.54254083

__s__    ...       0.00100000

left   ...       0.00300000    -119.10799291
centre ...       0.00400000    -121.33627169
right  ...       0.00500000    -123.54254083
new    ...       0.00600000    -125.72708501

__s__    ...       0.00100000

left   ...       0.00400000    -121.33627169
centre ...       0.00500000    -123.54254083
right  ...       0.00600000    -125.72708501
new    ...       0.00700000    -127.89017587

__s__    ...       0.00100000

left   ...       0.00500000    -123.54254083
centre ...       0.00600000    -125.72708501
right  ...       0.00700000    -127.89017587
new    ...       0.00800000    -130.03201417

__s__    ...       0.00100000

 ALPHA AFTER:    8.0000000000000019E-003
 XC AFTER:    7.1039686778455111E-004
 SANITY CHECK:    8.0000000000000088E-003
 DIRECTION dim            1  value    2.9695488979054524E-002
 DIRECTION dim            2  value   0.16614203914358650     
 DIRECTION dim            3  value  -0.38717097183232313     
 DIRECTION dim            4  value   -5.4243449668021644E-002
 DIRECTION dim            5  value    9.1286963436218310E-002
 DIRECTION dim            6  value  -0.26770990920133703     
 DIRECTION dim            7  value    4.5783849343942286E-002
 DIRECTION dim            8  value   -6.9937402334538948E-002
 DIRECTION dim            9  value   0.13262281309082738     
 DIRECTION dim           10  value    3.7920218667984257E-002
 DIRECTION dim           11  value  -0.18268421476383301     
 DIRECTION dim           12  value   -6.6382580498488275E-002
 DIRECTION dim           13  value    6.8564640612792063E-002
 DIRECTION dim           14  value    5.9287331189816946E-002
 DIRECTION dim           15  value   0.55420602568262900     
 DIRECTION dim           16  value   -4.7873021690933597E-002
 DIRECTION dim           17  value   -7.3738926645347397E-002
 DIRECTION dim           18  value   0.22778101376682836     
 DIRECTION dim           19  value    1.7624679580573832E-003
 DIRECTION dim           20  value    4.7725754008715211E-002
 DIRECTION dim           21  value  -0.21926078793040002     
 DIRECTION dim           22  value    1.7576938702479003E-003
 DIRECTION dim           23  value   -4.9284755015418659E-002
 DIRECTION dim           24  value  -0.19970117761299472     
 DIRECTION dim           25  value    3.5603680966821948E-003
 DIRECTION dim           26  value   -3.4597804300453165E-002
 DIRECTION dim           27  value   0.41880209242729594     
 DIRECTION dim           28  value   -8.6645378281068150E-002
 DIRECTION dim           29  value   -6.4885308392022556E-002
 DIRECTION dim           30  value  -0.22994067016453321     
 DIRECTION dim           31  value   -1.8291460924852735E-002
 DIRECTION dim           32  value   0.17471340129423743     
 DIRECTION dim           33  value  -0.31417822942655316     
 DIRECTION dim           34  value    1.0311051090643853E-002
 DIRECTION dim           35  value    1.1746326998359688E-003
 DIRECTION dim           36  value   0.23651312092395385     
 DIRECTION dim           37  value   -1.2888886489036714E-002
 DIRECTION dim           38  value   -6.1194547095513030E-002
 DIRECTION dim           39  value  -0.49600372121237374     
 DIRECTION dim           40  value   -2.2487085797281009E-002
 DIRECTION dim           41  value    3.9010469474310507E-002
 DIRECTION dim           42  value   0.68685938136694169     
 DIRECTION dim           43  value   0.38773666162763998     
 DIRECTION dim           44  value   0.26565563498392653     
 DIRECTION dim           45  value  -0.19943550137320651     
 DIRECTION dim           46  value    6.9227144837367902E-002
 DIRECTION dim           47  value   -1.3187683774683753E-002
 DIRECTION dim           48  value   -1.5094661914870891E-002
  Cycle:      6 Energy:      -130.032014  Gnorm:     29.967716  CPU:    0.060
 ALPHA BEFORE:    8.0000000000000019E-003
 XC BEFORE:    7.1039686778455111E-004
  ** Opt : line minimisation
left   ...       0.00000000    -130.03201417
centre ...       0.00100000    -131.95144617
right  ...       0.00200000    -133.85624782

left   ...       0.00000000    -130.03201417
centre ...       0.00100000    -131.95144617
right  ...       0.00200000    -133.85624782
new    ...       0.00300000    -135.74658677

__s__    ...       0.00100000

left   ...       0.00100000    -131.95144617
centre ...       0.00200000    -133.85624782
right  ...       0.00300000    -135.74658677
new    ...       0.00400000    -137.62269041

__s__    ...       0.00100000

left   ...       0.00200000    -133.85624782
centre ...       0.00300000    -135.74658677
right  ...       0.00400000    -137.62269041
new    ...       0.00500000    -139.48471124

__s__    ...       0.00100000

left   ...       0.00300000    -135.74658677
centre ...       0.00400000    -137.62269041
right  ...       0.00500000    -139.48471124
new    ...       0.00600000    -141.33288051

__s__    ...       0.00100000

left   ...       0.00400000    -137.62269041
centre ...       0.00500000    -139.48471124
right  ...       0.00600000    -141.33288051
new    ...       0.00700000    -143.16717953

__s__    ...       0.00100000

left   ...       0.00500000    -139.48471124
centre ...       0.00600000    -141.33288051
right  ...       0.00700000    -143.16717953
new    ...       0.00800000    -144.98782378

__s__    ...       0.00100000

 ALPHA AFTER:    8.0000000000000019E-003
 XC AFTER:    9.3854613000438764E-004
 SANITY CHECK:    7.9999999999999950E-003
 DIRECTION dim            1  value    2.8518657777479584E-002
 DIRECTION dim            2  value   0.14417154416734276     
 DIRECTION dim            3  value  -0.32588604293634515     
 DIRECTION dim            4  value   -5.9078867398321668E-002
 DIRECTION dim            5  value    9.9661497549017597E-002
 DIRECTION dim            6  value  -0.23992317725575996     
 DIRECTION dim            7  value    4.6923805996236745E-002
 DIRECTION dim            8  value   -7.4127110443672900E-002
 DIRECTION dim            9  value   0.12926671197522702     
 DIRECTION dim           10  value    3.4540720741760587E-002
 DIRECTION dim           11  value  -0.17178877238324086     
 DIRECTION dim           12  value   -1.9940727271752536E-002
 DIRECTION dim           13  value    5.9483477586231515E-002
 DIRECTION dim           14  value    9.1910969103558768E-002
 DIRECTION dim           15  value   0.46009796800827718     
 DIRECTION dim           16  value   -5.0062689024411793E-002
 DIRECTION dim           17  value   -7.9783648507483707E-002
 DIRECTION dim           18  value   0.21818856644847970     
 DIRECTION dim           19  value    2.1393351463829852E-003
 DIRECTION dim           20  value    4.5389773632511364E-002
 DIRECTION dim           21  value  -0.21767479588643576     
 DIRECTION dim           22  value    2.1660095383625399E-003
 DIRECTION dim           23  value   -4.6675320847260275E-002
 DIRECTION dim           24  value  -0.19704861105753374     
 DIRECTION dim           25  value    1.9736362139556925E-002
 DIRECTION dim           26  value   -4.0962489137320611E-002
 DIRECTION dim           27  value   0.35807018383612077     
 DIRECTION dim           28  value   -8.9450171509334167E-002
 DIRECTION dim           29  value   -7.4748285443344470E-002
 DIRECTION dim           30  value  -0.19610564067430866     
 DIRECTION dim           31  value   -1.0994910851881461E-002
 DIRECTION dim           32  value   0.17287229160138709     
 DIRECTION dim           33  value  -0.26727504275183073     
 DIRECTION dim           34  value    4.4658308732745781E-003
 DIRECTION dim           35  value    4.9844439430672457E-003
 DIRECTION dim           36  value   0.20660567339911803     
 DIRECTION dim           37  value   -5.8233095205522875E-003
 DIRECTION dim           38  value   -6.9191008184526018E-002
 DIRECTION dim           39  value  -0.44837255189341169     
 DIRECTION dim           40  value   -2.4255183857613494E-002
 DIRECTION dim           41  value    3.7386104589417650E-002
 DIRECTION dim           42  value   0.63827514508698791     
 DIRECTION dim           43  value   0.36262820591472794     
 DIRECTION dim           44  value   0.24634531055105402     
 DIRECTION dim           45  value  -0.18250337931680943     
 DIRECTION dim           46  value    6.7645555205637031E-002
 DIRECTION dim           47  value   -9.6350283660157719E-003
 DIRECTION dim           48  value   -1.6314714159731090E-002
  Cycle:      7 Energy:      -144.987824  Gnorm:     28.272497  CPU:    0.066
 ALPHA BEFORE:    8.0000000000000019E-003
 XC BEFORE:    9.3854613000438764E-004
  ** Opt : line minimisation
left   ...       0.00000000    -144.98782378
centre ...       0.00100000    -146.72868600
right  ...       0.00200000    -148.45909704

left   ...       0.00000000    -144.98782378
centre ...       0.00100000    -146.72868600
right  ...       0.00200000    -148.45909704
new    ...       0.00300000    -150.17837375

__s__    ...       0.00100000

left   ...       0.00100000    -146.72868600
centre ...       0.00200000    -148.45909704
right  ...       0.00300000    -150.17837375
new    ...       0.00400000    -151.88804839

__s__    ...       0.00100000

left   ...       0.00200000    -148.45909704
centre ...       0.00300000    -150.17837375
right  ...       0.00400000    -151.88804839
new    ...       0.00500000    -153.58733977

__s__    ...       0.00100000

left   ...       0.00300000    -150.17837375
centre ...       0.00400000    -151.88804839
right  ...       0.00500000    -153.58733977
new    ...       0.00600000    -155.27704015

__s__    ...       0.00100000

left   ...       0.00400000    -151.88804839
centre ...       0.00500000    -153.58733977
right  ...       0.00600000    -155.27704015
new    ...       0.00700000    -156.95650546

__s__    ...       0.00100000

left   ...       0.00500000    -153.58733977
centre ...       0.00600000    -155.27704015
right  ...       0.00700000    -156.95650546
new    ...       0.00800000    -158.62631305

__s__    ...       0.00100000

 ALPHA AFTER:    8.0000000000000019E-003
 XC AFTER:    1.1788672556959023E-003
 SANITY CHECK:    7.9999999999999915E-003
 DIRECTION dim            1  value    3.0040140711439362E-002
 DIRECTION dim            2  value   0.13189599017788881     
 DIRECTION dim            3  value  -0.29091538592982213     
 DIRECTION dim            4  value   -6.4704006748624684E-002
 DIRECTION dim            5  value   0.10971775036669797     
 DIRECTION dim            6  value  -0.22814725933209778     
 DIRECTION dim            7  value    4.9190254443468646E-002
 DIRECTION dim            8  value   -8.0101162916995858E-002
 DIRECTION dim            9  value   0.13097113334029506     
 DIRECTION dim           10  value    3.3255422838124889E-002
 DIRECTION dim           11  value  -0.16937529615669961     
 DIRECTION dim           12  value    1.2305654873876748E-002
 DIRECTION dim           13  value    5.4270875921142908E-002
 DIRECTION dim           14  value   0.11930707561544197     
 DIRECTION dim           15  value   0.41260120927425026     
 DIRECTION dim           16  value   -5.3298372486920903E-002
 DIRECTION dim           17  value   -8.7503389470324044E-002
 DIRECTION dim           18  value   0.22000910971691237     
 DIRECTION dim           19  value    2.6257762219573690E-003
 DIRECTION dim           20  value    4.4840135616466603E-002
 DIRECTION dim           21  value  -0.22434789413082615     
 DIRECTION dim           22  value    2.6780515085778464E-003
 DIRECTION dim           23  value   -4.5939740633892022E-002
 DIRECTION dim           24  value  -0.20204995269204198     
 DIRECTION dim           25  value    3.1637590676936750E-002
 DIRECTION dim           26  value   -4.7547541010316455E-002
 DIRECTION dim           27  value   0.32729593407132823     
 DIRECTION dim           28  value   -9.3967289567438120E-002
 DIRECTION dim           29  value   -8.3985068724053757E-002
 DIRECTION dim           30  value  -0.17951075541855072     
 DIRECTION dim           31  value   -6.5023363481682937E-003
 DIRECTION dim           32  value   0.17850784981961129     
 DIRECTION dim           33  value  -0.24394469148042633     
 DIRECTION dim           34  value   -7.1720496370685990E-004
 DIRECTION dim           35  value    9.2392342071324126E-003
 DIRECTION dim           36  value   0.19050411556136046     
 DIRECTION dim           37  value   -1.5849887414260045E-004
 DIRECTION dim           38  value   -7.7758229477332561E-002
 DIRECTION dim           39  value  -0.43079138759557506     
 DIRECTION dim           40  value   -2.6323071055635739E-002
 DIRECTION dim           41  value    3.6543291653471074E-002
 DIRECTION dim           42  value   0.62407324293447286     
 DIRECTION dim           43  value   0.35608706261517820     
 DIRECTION dim           44  value   0.24058376305771040     
 DIRECTION dim           45  value  -0.17698384539268808     
 DIRECTION dim           46  value    6.8614834707606431E-002
 DIRECTION dim           47  value   -6.7857112708971570E-003
 DIRECTION dim           48  value   -1.8463268882972624E-002
  Cycle:      8 Energy:      -158.626313  Gnorm:     27.002629  CPU:    0.073
 ALPHA BEFORE:    8.0000000000000019E-003
 XC BEFORE:    1.1788672556959023E-003
  ** Opt : line minimisation
left   ...       0.00000000    -158.62631305
centre ...       0.00100000    -160.23112313
right  ...       0.00200000    -161.82831361

left   ...       0.00000000    -158.62631305
centre ...       0.00100000    -160.23112313
right  ...       0.00200000    -161.82831361
new    ...       0.00300000    -163.41780281

__s__    ...       0.00100000

left   ...       0.00100000    -160.23112313
centre ...       0.00200000    -161.82831361
right  ...       0.00300000    -163.41780281
new    ...       0.00400000    -165.00020762

__s__    ...       0.00100000

left   ...       0.00200000    -161.82831361
centre ...       0.00300000    -163.41780281
right  ...       0.00400000    -165.00020762
new    ...       0.00500000    -166.57509360

__s__    ...       0.00100000

left   ...       0.00300000    -163.41780281
centre ...       0.00400000    -165.00020762
right  ...       0.00500000    -166.57509360
new    ...       0.00600000    -168.14278317

__s__    ...       0.00100000

left   ...       0.00400000    -165.00020762
centre ...       0.00500000    -166.57509360
right  ...       0.00600000    -168.14278317
new    ...       0.00700000    -169.70313127

__s__    ...       0.00100000

left   ...       0.00500000    -166.57509360
centre ...       0.00600000    -168.14278317
right  ...       0.00700000    -169.70313127
new    ...       0.00800000    -171.25668947

__s__    ...       0.00100000

 ALPHA AFTER:    8.0000000000000019E-003
 XC AFTER:    1.4364661597734420E-003
 SANITY CHECK:    7.9999999999999915E-003
 DIRECTION dim            1  value    3.2199863009692506E-002
 DIRECTION dim            2  value   0.11961587470227282     
 DIRECTION dim            3  value  -0.25825351590072509     
 DIRECTION dim            4  value   -6.9218544849020611E-002
 DIRECTION dim            5  value   0.11824048466127335     
 DIRECTION dim            6  value  -0.21720241800190482     
 DIRECTION dim            7  value    5.0759372149624442E-002
 DIRECTION dim            8  value   -8.5231378143824255E-002
 DIRECTION dim            9  value   0.13192163237235624     
 DIRECTION dim           10  value    3.1927328571414573E-002
 DIRECTION dim           11  value  -0.16615319062808917     
 DIRECTION dim           12  value    3.9755954469193083E-002
 DIRECTION dim           13  value    4.9210416469625706E-002
 DIRECTION dim           14  value   0.14219704367224051     
 DIRECTION dim           15  value   0.37424115248685769     
 DIRECTION dim           16  value   -5.5760873203084364E-002
 DIRECTION dim           17  value   -9.4280484532092590E-002
 DIRECTION dim           18  value   0.22195711777171281     
 DIRECTION dim           19  value    3.1819767949221394E-003
 DIRECTION dim           20  value    4.3776292811251324E-002
 DIRECTION dim           21  value  -0.22940912317901024     
 DIRECTION dim           22  value    3.2541603645285370E-003
 DIRECTION dim           23  value   -4.4684329983480736E-002
 DIRECTION dim           24  value  -0.20560467474992108     
 DIRECTION dim           25  value    4.1451670823825858E-002
 DIRECTION dim           26  value   -5.3283534276510926E-002
 DIRECTION dim           27  value   0.30000084900134677     
 DIRECTION dim           28  value   -9.6775864684250062E-002
 DIRECTION dim           29  value   -9.1010078419459114E-002
 DIRECTION dim           30  value  -0.16517986222168118     
 DIRECTION dim           31  value   -2.7652991381066586E-003
 DIRECTION dim           32  value   0.18307926268571731     
 DIRECTION dim           33  value  -0.22385589318281704     
 DIRECTION dim           34  value   -6.0348018162412788E-003
 DIRECTION dim           35  value    1.3802479720668955E-002
 DIRECTION dim           36  value   0.17490358608857473     
 DIRECTION dim           37  value    4.7368136722116443E-003
 DIRECTION dim           38  value   -8.4231416267971482E-002
 DIRECTION dim           39  value  -0.41617295614932975     
 DIRECTION dim           40  value   -2.8065787782169740E-002
 DIRECTION dim           41  value    3.4940775817446014E-002
 DIRECTION dim           42  value   0.60818726483152674     
 DIRECTION dim           43  value   0.34772646575914656     
 DIRECTION dim           44  value   0.23394919199990041     
 DIRECTION dim           45  value  -0.17164607489164099     
 DIRECTION dim           46  value    6.9098175710476106E-002
 DIRECTION dim           47  value   -3.8749128368755705E-003
 DIRECTION dim           48  value   -2.0622103799842108E-002
  Cycle:      9 Energy:      -171.256689  Gnorm:     26.052839  CPU:    0.079
 ALPHA BEFORE:    8.0000000000000019E-003
 XC BEFORE:    1.4364661597734420E-003
  ** Opt : line minimisation
left   ...       0.00000000    -171.25668947
centre ...       0.00100000    -172.81474061
right  ...       0.00200000    -174.36687430

left   ...       0.00000000    -171.25668947
centre ...       0.00100000    -172.81474061
right  ...       0.00200000    -174.36687430
new    ...       0.00300000    -175.91301950

__s__    ...       0.00100000

left   ...       0.00100000    -172.81474061
centre ...       0.00200000    -174.36687430
right  ...       0.00300000    -175.91301950
new    ...       0.00400000    -177.45323977

__s__    ...       0.00100000

left   ...       0.00200000    -174.36687430
centre ...       0.00300000    -175.91301950
right  ...       0.00400000    -177.45323977
new    ...       0.00500000    -178.98761582

__s__    ...       0.00100000

left   ...       0.00300000    -175.91301950
centre ...       0.00400000    -177.45323977
right  ...       0.00500000    -178.98761582
new    ...       0.00600000    -180.51622622

__s__    ...       0.00100000

left   ...       0.00400000    -177.45323977
centre ...       0.00500000    -178.98761582
right  ...       0.00600000    -180.51622622
new    ...       0.00700000    -182.03914734

__s__    ...       0.00100000

left   ...       0.00500000    -178.98761582
centre ...       0.00600000    -180.51622622
right  ...       0.00700000    -182.03914734
new    ...       0.00800000    -183.55625903

__s__    ...       0.00100000

 ALPHA AFTER:    8.0000000000000019E-003
 XC AFTER:    1.7230151012530527E-003
 SANITY CHECK:    7.9999999999999828E-003
 DIRECTION dim            1  value    3.5818617684951405E-002
 DIRECTION dim            2  value   0.11237493698829973     
 DIRECTION dim            3  value  -0.23867947109895293     
 DIRECTION dim            4  value   -7.5079048056182957E-002
 DIRECTION dim            5  value   0.12940989520991764     
 DIRECTION dim            6  value  -0.21551975710672555     
 DIRECTION dim            7  value    5.3546239119272226E-002
 DIRECTION dim            8  value   -9.2635498502876223E-002
 DIRECTION dim            9  value   0.13729377712745586     
 DIRECTION dim           10  value    3.1797726322287070E-002
 DIRECTION dim           11  value  -0.16860464238342010     
 DIRECTION dim           12  value    6.3682173118292829E-002
 DIRECTION dim           13  value    4.6594273148218776E-002
 DIRECTION dim           14  value   0.16496384042990814     
 DIRECTION dim           15  value   0.35886648717175124     
 DIRECTION dim           16  value   -5.9515984129774345E-002
 DIRECTION dim           17  value  -0.10350817793935117     
 DIRECTION dim           18  value   0.23245932658885732     
 DIRECTION dim           19  value    3.9205756618803508E-003
 DIRECTION dim           20  value    4.3919678604338333E-002
 DIRECTION dim           21  value  -0.24146582855074689     
 DIRECTION dim           22  value    4.0080495120625882E-003
 DIRECTION dim           23  value   -4.4672055888255617E-002
 DIRECTION dim           24  value  -0.21547134973056278     
 DIRECTION dim           25  value    5.0676613178296810E-002
 DIRECTION dim           26  value   -5.9841777299184107E-002
 DIRECTION dim           27  value   0.28778169252195712     
 DIRECTION dim           28  value  -0.10151546558419978     
 DIRECTION dim           29  value   -9.9144781925788072E-002
 DIRECTION dim           30  value  -0.15918329258432992     
 DIRECTION dim           31  value    1.7594142217456149E-004
 DIRECTION dim           32  value   0.19315546704699921     
 DIRECTION dim           33  value  -0.21556357546635810     
 DIRECTION dim           34  value   -1.1363301467430883E-002
 DIRECTION dim           35  value    1.8749963946698294E-002
 DIRECTION dim           36  value   0.16723770749143579     
 DIRECTION dim           37  value    8.4413991153472999E-003
 DIRECTION dim           38  value   -9.0997998254475021E-002
 DIRECTION dim           39  value  -0.42068092538553953     
 DIRECTION dim           40  value   -3.0606880545772982E-002
 DIRECTION dim           41  value    3.4120002082618575E-002
 DIRECTION dim           42  value   0.61412617433483307     
 DIRECTION dim           43  value   0.35076264641293659     
 DIRECTION dim           44  value   0.23521534655741666     
 DIRECTION dim           45  value  -0.17285964766210615     
 DIRECTION dim           46  value    7.1800113329966136E-002
 DIRECTION dim           47  value   -1.2082322498433171E-003
 DIRECTION dim           48  value   -2.3304970114867853E-002
  Cycle:     10 Energy:      -183.556259  Gnorm:     25.301055  CPU:    0.086
 ALPHA BEFORE:    8.0000000000000019E-003
 XC BEFORE:    1.7230151012530527E-003
  ** Opt : line minimisation
left   ...       0.00000000    -183.55625903
centre ...       0.00100000    -184.98514213
right  ...       0.00200000    -186.40970818

left   ...       0.00000000    -183.55625903
centre ...       0.00100000    -184.98514213
right  ...       0.00200000    -186.40970818
new    ...       0.00300000    -187.83015787

__s__    ...       0.00100000

left   ...       0.00100000    -184.98514213
centre ...       0.00200000    -186.40970818
right  ...       0.00300000    -187.83015787
new    ...       0.00400000    -189.24622078

__s__    ...       0.00100000

left   ...       0.00200000    -186.40970818
centre ...       0.00300000    -187.83015787
right  ...       0.00400000    -189.24622078
new    ...       0.00500000    -190.65791766

__s__    ...       0.00100000

left   ...       0.00300000    -187.83015787
centre ...       0.00400000    -189.24622078
right  ...       0.00500000    -190.65791766
new    ...       0.00600000    -192.06563669

__s__    ...       0.00100000

left   ...       0.00400000    -189.24622078
centre ...       0.00500000    -190.65791766
right  ...       0.00600000    -192.06563669
new    ...       0.00700000    -193.46923874

__s__    ...       0.00100000

left   ...       0.00500000    -190.65791766
centre ...       0.00600000    -192.06563669
right  ...       0.00700000    -193.46923874
new    ...       0.00800000    -194.86875777

__s__    ...       0.00100000

 ALPHA AFTER:    8.0000000000000019E-003
 XC AFTER:    2.0226671639197173E-003
 SANITY CHECK:    8.0000000000000002E-003
 DIRECTION dim            1  value    3.7456507833333083E-002
 DIRECTION dim            2  value    9.7646304209371274E-002
 DIRECTION dim            3  value  -0.20455537517448938     
 DIRECTION dim            4  value   -7.5391610986735205E-002
 DIRECTION dim            5  value   0.13147081352304218     
 DIRECTION dim            6  value  -0.20038229982361350     
 DIRECTION dim            7  value    5.2479916188584240E-002
 DIRECTION dim            8  value   -9.3843153571976284E-002
 DIRECTION dim            9  value   0.13384190985072375     
 DIRECTION dim           10  value    2.9545081939946500E-002
 DIRECTION dim           11  value  -0.15972223272701880     
 DIRECTION dim           12  value    8.1595545472486028E-002
 DIRECTION dim           13  value    4.1455341737086843E-002
 DIRECTION dim           14  value   0.17382672904397539     
 DIRECTION dim           15  value   0.32518189029859479     
 DIRECTION dim           16  value   -5.9003114169321511E-002
 DIRECTION dim           17  value  -0.10583904545026818     
 DIRECTION dim           18  value   0.22896429404094173     
 DIRECTION dim           19  value    4.5487382059311065E-003
 DIRECTION dim           20  value    4.0789093506994445E-002
 DIRECTION dim           21  value  -0.23731949682850337     
 DIRECTION dim           22  value    4.6362162777611000E-003
 DIRECTION dim           23  value   -4.1329166757638189E-002
 DIRECTION dim           24  value  -0.21084403355801259     
 DIRECTION dim           25  value    5.5632331181500752E-002
 DIRECTION dim           26  value   -6.1918073744702130E-002
 DIRECTION dim           27  value   0.25847041456526476     
 DIRECTION dim           28  value   -9.8548842529228187E-002
 DIRECTION dim           29  value   -9.9515528987921806E-002
 DIRECTION dim           30  value  -0.14357599474533950     
 DIRECTION dim           31  value    2.8515914635192639E-003
 DIRECTION dim           32  value   0.19009526866764012     
 DIRECTION dim           33  value  -0.19504746977912910     
 DIRECTION dim           34  value   -1.6143505430606150E-002
 DIRECTION dim           35  value    2.2609526577410131E-002
 DIRECTION dim           36  value   0.14925039767279003     
 DIRECTION dim           37  value    1.0391162492370485E-002
 DIRECTION dim           38  value   -8.9289909806911802E-002
 DIRECTION dim           39  value  -0.40090583953071313     
 DIRECTION dim           40  value   -3.1233636969977528E-002
 DIRECTION dim           41  value    3.0594395709926007E-002
 DIRECTION dim           42  value   0.57922338701681286     
 DIRECTION dim           43  value   0.32935006235827780     
 DIRECTION dim           44  value   0.22012291982574833     
 DIRECTION dim           45  value  -0.16270036007578348     
 DIRECTION dim           46  value    6.9729797787963274E-002
 DIRECTION dim           47  value    1.6805929521985200E-003
 DIRECTION dim           48  value   -2.4336373968880963E-002
  Cycle:     11 Energy:      -194.868758  Gnorm:     24.726659  CPU:    0.092
 ALPHA BEFORE:    8.0000000000000019E-003
 XC BEFORE:    2.0226671639197173E-003
  ** Opt : line minimisation
left   ...       0.00000000    -194.86875777
centre ...       0.00100000    -196.24298311
right  ...       0.00200000    -197.61333484

left   ...       0.00000000    -194.86875777
centre ...       0.00100000    -196.24298311
right  ...       0.00200000    -197.61333484
new    ...       0.00300000    -198.98018137

__s__    ...       0.00100000

left   ...       0.00100000    -196.24298311
centre ...       0.00200000    -197.61333484
right  ...       0.00300000    -198.98018137
new    ...       0.00400000    -200.34353982

__s__    ...       0.00100000

left   ...       0.00200000    -197.61333484
centre ...       0.00300000    -198.98018137
right  ...       0.00400000    -200.34353982
new    ...       0.00500000    -201.70342534

__s__    ...       0.00100000

left   ...       0.00300000    -198.98018137
centre ...       0.00400000    -200.34353982
right  ...       0.00500000    -201.70342534
new    ...       0.00600000    -203.05985110

__s__    ...       0.00100000

left   ...       0.00400000    -200.34353982
centre ...       0.00500000    -201.70342534
right  ...       0.00600000    -203.05985110
new    ...       0.00700000    -204.41265348

__s__    ...       0.00100000

left   ...       0.00500000    -201.70342534
centre ...       0.00600000    -203.05985110
right  ...       0.00700000    -204.41265348
new    ...       0.00800000    -205.76219157

__s__    ...       0.00100000

 ALPHA AFTER:    8.0000000000000019E-003
 XC AFTER:    2.3428739849056112E-003
 SANITY CHECK:    7.9999999999999984E-003
 DIRECTION dim            1  value    4.0025852623236734E-002
 DIRECTION dim            2  value    8.8731386478137747E-002
 DIRECTION dim            3  value  -0.18425520972181403     
 DIRECTION dim            4  value   -7.7191236077704672E-002
 DIRECTION dim            5  value   0.13631748739355937     
 DIRECTION dim            6  value  -0.19462254151703892     
 DIRECTION dim            7  value    5.2836292185300324E-002
 DIRECTION dim            8  value   -9.7473904757380186E-002
 DIRECTION dim            9  value   0.13525839400153736     
 DIRECTION dim           10  value    2.8576059481426334E-002
 DIRECTION dim           11  value  -0.15707217338009369     
 DIRECTION dim           12  value    9.6753616959640049E-002
 DIRECTION dim           13  value    3.9214799167599151E-002
 DIRECTION dim           14  value   0.18277870946984009     
 DIRECTION dim           15  value   0.31154039046426257     
 DIRECTION dim           16  value   -5.9963681850811884E-002
 DIRECTION dim           17  value  -0.11072353289852212     
 DIRECTION dim           18  value   0.23421056339312976     
 DIRECTION dim           19  value    5.3488035978808005E-003
 DIRECTION dim           20  value    3.9080887770128997E-002
 DIRECTION dim           21  value  -0.24056199601047840     
 DIRECTION dim           22  value    5.4261582163649645E-003
 DIRECTION dim           23  value   -3.9462820856233129E-002
 DIRECTION dim           24  value  -0.21294247507365274     
 DIRECTION dim           25  value    6.0354848268725218E-002
 DIRECTION dim           26  value   -6.4718019679612590E-002
 DIRECTION dim           27  value   0.24391880891605935     
 DIRECTION dim           28  value   -9.8059397521750524E-002
 DIRECTION dim           29  value  -0.10151360673726034     
 DIRECTION dim           30  value  -0.13562798257802980     
 DIRECTION dim           31  value    4.8886416651056398E-003
 DIRECTION dim           32  value   0.19263333356837437     
 DIRECTION dim           33  value  -0.18595038259907107     
 DIRECTION dim           34  value   -2.0499121497406139E-002
 DIRECTION dim           35  value    2.6281751520922589E-002
 DIRECTION dim           36  value   0.14000346513010087     
 DIRECTION dim           37  value    1.0884023968296162E-002
 DIRECTION dim           38  value   -8.7668096382654048E-002
 DIRECTION dim           39  value  -0.39962834444382089     
 DIRECTION dim           40  value   -3.2816886481947700E-002
 DIRECTION dim           41  value    2.8269128559009062E-002
 DIRECTION dim           42  value   0.56752510516003207     
 DIRECTION dim           43  value   0.32024427337942601     
 DIRECTION dim           44  value   0.21334530194580856     
 DIRECTION dim           45  value  -0.15907998339389845     
 DIRECTION dim           46  value    7.0054561413519262E-002
 DIRECTION dim           47  value    4.1960185427129216E-003
 DIRECTION dim           48  value   -2.5646473218709886E-002
  Cycle:     12 Energy:      -205.762192  Gnorm:     24.241659  CPU:    0.099
 ALPHA BEFORE:    8.0000000000000019E-003
 XC BEFORE:    2.3428739849056112E-003
  ** Opt : line minimisation
left   ...       0.00000000    -205.76219157
centre ...       0.00100000    -207.08639064
right  ...       0.00200000    -208.40755674

left   ...       0.00000000    -205.76219157
centre ...       0.00100000    -207.08639064
right  ...       0.00200000    -208.40755674
new    ...       0.00300000    -209.72568866

__s__    ...       0.00100000

left   ...       0.00100000    -207.08639064
centre ...       0.00200000    -208.40755674
right  ...       0.00300000    -209.72568866
new    ...       0.00400000    -211.04078338

__s__    ...       0.00100000

left   ...       0.00200000    -208.40755674
centre ...       0.00300000    -209.72568866
right  ...       0.00400000    -211.04078338
new    ...       0.00500000    -212.35283610

__s__    ...       0.00100000

left   ...       0.00300000    -209.72568866
centre ...       0.00400000    -211.04078338
right  ...       0.00500000    -212.35283610
new    ...       0.00600000    -213.66182099

__s__    ...       0.00100000

left   ...       0.00400000    -211.04078338
centre ...       0.00500000    -212.35283610
right  ...       0.00600000    -213.66182099
new    ...       0.00700000    -214.96776813

__s__    ...       0.00100000

left   ...       0.00500000    -212.35283610
centre ...       0.00600000    -213.66182099
right  ...       0.00700000    -214.96776813
new    ...       0.00800000    -216.27064815

__s__    ...       0.00100000

 ALPHA AFTER:    8.0000000000000019E-003
 XC AFTER:    2.6811461851034110E-003
 SANITY CHECK:    8.0000000000000054E-003
 DIRECTION dim            1  value    4.2284025024724954E-002
 DIRECTION dim            2  value    8.0528381769544771E-002
 DIRECTION dim            3  value  -0.16622667113836009     
 DIRECTION dim            4  value   -7.8007361829905919E-002
 DIRECTION dim            5  value   0.13972994375300266     
 DIRECTION dim            6  value  -0.18919767705220231     
 DIRECTION dim            7  value    5.2749086364761479E-002
 DIRECTION dim            8  value  -0.10043438614991519     
 DIRECTION dim            9  value   0.13647061505673058     
 DIRECTION dim           10  value    2.7585794875896089E-002
 DIRECTION dim           11  value  -0.15408118223808603     
 DIRECTION dim           12  value   0.10903760152332610     
 DIRECTION dim           13  value    3.7793857975793439E-002
 DIRECTION dim           14  value   0.18738530005408385     
 DIRECTION dim           15  value   0.30051747530501538     
 DIRECTION dim           16  value   -6.0363244988780526E-002
 DIRECTION dim           17  value  -0.11476579389646775     
 DIRECTION dim           18  value   0.23953747892076160     
 DIRECTION dim           19  value    6.2208103000675561E-003
 DIRECTION dim           20  value    3.7072306878215645E-002
 DIRECTION dim           21  value  -0.24240620457267298     
 DIRECTION dim           22  value    6.2730395204198732E-003
 DIRECTION dim           23  value   -3.7311034021095056E-002
 DIRECTION dim           24  value  -0.21389440787176139     
 DIRECTION dim           25  value    6.3737729300036280E-002
 DIRECTION dim           26  value   -6.6429438536225696E-002
 DIRECTION dim           27  value   0.23097462064017624     
 DIRECTION dim           28  value   -9.6542580240990439E-002
 DIRECTION dim           29  value  -0.10202554509368097     
 DIRECTION dim           30  value  -0.12802582865187387     
 DIRECTION dim           31  value    6.5660089216645467E-003
 DIRECTION dim           32  value   0.19381507553704691     
 DIRECTION dim           33  value  -0.17849670703788614     
 DIRECTION dim           34  value   -2.4364225817794846E-002
 DIRECTION dim           35  value    2.9343290361829102E-002
 DIRECTION dim           36  value   0.13198188896086643     
 DIRECTION dim           37  value    1.0001827381649821E-002
 DIRECTION dim           38  value   -8.3137397792784604E-002
 DIRECTION dim           39  value  -0.39937740455793186     
 DIRECTION dim           40  value   -3.4362144364818478E-002
 DIRECTION dim           41  value    2.5793800686807016E-002
 DIRECTION dim           42  value   0.55464537344797249     
 DIRECTION dim           43  value   0.30968758149368858     
 DIRECTION dim           44  value   0.20554659700391090     
 DIRECTION dim           45  value  -0.15500299522249214     
 DIRECTION dim           46  value    7.0067745898564751E-002
 DIRECTION dim           47  value    6.6109257337233279E-003
 DIRECTION dim           48  value   -2.6490002104946949E-002
  Cycle:     13 Energy:      -216.270648  Gnorm:     23.808322  CPU:    0.106
 ALPHA BEFORE:    8.0000000000000019E-003
 XC BEFORE:    2.6811461851034110E-003
  ** Opt : line minimisation
left   ...       0.00000000    -216.27064815
centre ...       0.00100000    -217.55010029
right  ...       0.00200000    -218.82661270

left   ...       0.00000000    -216.27064815
centre ...       0.00100000    -217.55010029
right  ...       0.00200000    -218.82661270
new    ...       0.00300000    -220.10034329

__s__    ...       0.00100000

left   ...       0.00100000    -217.55010029
centre ...       0.00200000    -218.82661270
right  ...       0.00300000    -220.10034329
new    ...       0.00400000    -221.37125435

__s__    ...       0.00100000

left   ...       0.00200000    -218.82661270
centre ...       0.00300000    -220.10034329
right  ...       0.00400000    -221.37125435
new    ...       0.00500000    -222.63936427

__s__    ...       0.00100000

left   ...       0.00300000    -220.10034329
centre ...       0.00400000    -221.37125435
right  ...       0.00500000    -222.63936427
new    ...       0.00600000    -223.90463222

__s__    ...       0.00100000

left   ...       0.00400000    -221.37125435
centre ...       0.00500000    -222.63936427
right  ...       0.00600000    -223.90463222
new    ...       0.00700000    -225.16686011

__s__    ...       0.00100000

left   ...       0.00500000    -222.63936427
centre ...       0.00600000    -223.90463222
right  ...       0.00700000    -225.16686011
new    ...       0.00800000    -226.42619867

__s__    ...       0.00100000

 ALPHA AFTER:    8.0000000000000019E-003
 XC AFTER:    3.0349784736910632E-003
 SANITY CHECK:    7.9999999999999846E-003
 DIRECTION dim            1  value    4.4229036073456601E-002
 DIRECTION dim            2  value    7.3296913804449859E-002
 DIRECTION dim            3  value  -0.15068458741598686     
 DIRECTION dim            4  value   -7.8083359009499212E-002
 DIRECTION dim            5  value   0.14207850737867178     
 DIRECTION dim            6  value  -0.18436276326273016     
 DIRECTION dim            7  value    5.2390798984896222E-002
 DIRECTION dim            8  value  -0.10296018436110403     
 DIRECTION dim            9  value   0.13773939567904253     
 DIRECTION dim           10  value    2.6643815326383234E-002
 DIRECTION dim           11  value  -0.15114738267224892     
 DIRECTION dim           12  value   0.11895987904599609     
 DIRECTION dim           13  value    3.7215581962531302E-002
 DIRECTION dim           14  value   0.18844844858238402     
 DIRECTION dim           15  value   0.29143398675288074     
 DIRECTION dim           16  value   -6.0384323571619991E-002
 DIRECTION dim           17  value  -0.11821543777153246     
 DIRECTION dim           18  value   0.24528359167333030     
 DIRECTION dim           19  value    7.1669889435930431E-003
 DIRECTION dim           20  value    3.4898422812533331E-002
 DIRECTION dim           21  value  -0.24334030461813477     
 DIRECTION dim           22  value    7.1765393016756064E-003
 DIRECTION dim           23  value   -3.5014775420581935E-002
 DIRECTION dim           24  value  -0.21415443903322412     
 DIRECTION dim           25  value    6.6044818625052737E-002
 DIRECTION dim           26  value   -6.7246704546108135E-002
 DIRECTION dim           27  value   0.21978594822765884     
 DIRECTION dim           28  value   -9.4393961471664414E-002
 DIRECTION dim           29  value  -0.10145819542966783     
 DIRECTION dim           30  value  -0.12078684532586492     
 DIRECTION dim           31  value    7.9189536322759792E-003
 DIRECTION dim           32  value   0.19408839508016748     
 DIRECTION dim           33  value  -0.17279052509216608     
 DIRECTION dim           34  value   -2.7725312041044534E-002
 DIRECTION dim           35  value    3.1784124314380269E-002
 DIRECTION dim           36  value   0.12539530179047786     
 DIRECTION dim           37  value    7.9615062477908626E-003
 DIRECTION dim           38  value   -7.6155001751390020E-002
 DIRECTION dim           39  value  -0.40020336055435413     
 DIRECTION dim           40  value   -3.5951355827933726E-002
 DIRECTION dim           41  value    2.3315064646809634E-002
 DIRECTION dim           42  value   0.54179259634354893     
 DIRECTION dim           43  value   0.29858808371535395     
 DIRECTION dim           44  value   0.19730021089627983     
 DIRECTION dim           45  value  -0.15074489451547529     
 DIRECTION dim           46  value    6.9888020820242716E-002
 DIRECTION dim           47  value    8.9337193328786393E-003
 DIRECTION dim           48  value   -2.6925597765645928E-002
  Cycle:     14 Energy:      -226.426199  Gnorm:     23.398911  CPU:    0.113
 ALPHA BEFORE:    8.0000000000000019E-003
 XC BEFORE:    3.0349784736910632E-003
  ** Opt : line minimisation
left   ...       0.00000000    -226.42619867
centre ...       0.00100000    -227.66254076
right  ...       0.00200000    -228.89623798

left   ...       0.00000000    -226.42619867
centre ...       0.00100000    -227.66254076
right  ...       0.00200000    -228.89623798
new    ...       0.00300000    -230.12743668

__s__    ...       0.00100000

left   ...       0.00100000    -227.66254076
centre ...       0.00200000    -228.89623798
right  ...       0.00300000    -230.12743668
new    ...       0.00400000    -231.35575702

__s__    ...       0.00100000

left   ...       0.00200000    -228.89623798
centre ...       0.00300000    -230.12743668
right  ...       0.00400000    -231.35575702
new    ...       0.00500000    -232.58134265

__s__    ...       0.00100000

left   ...       0.00300000    -230.12743668
centre ...       0.00400000    -231.35575702
right  ...       0.00500000    -232.58134265
new    ...       0.00600000    -233.80396694

__s__    ...       0.00100000

left   ...       0.00400000    -231.35575702
centre ...       0.00500000    -232.58134265
right  ...       0.00600000    -233.80396694
new    ...       0.00700000    -235.02380987

__s__    ...       0.00100000

left   ...       0.00500000    -232.58134265
centre ...       0.00600000    -233.80396694
right  ...       0.00700000    -235.02380987
new    ...       0.00800000    -236.24116701

__s__    ...       0.00100000

 ALPHA AFTER:    8.0000000000000019E-003
 XC AFTER:    3.4016710388003334E-003
 SANITY CHECK:    7.9999999999999880E-003
 DIRECTION dim            1  value    4.5836570638658848E-002
 DIRECTION dim            2  value    6.6969379379916941E-002
 DIRECTION dim            3  value  -0.13722871496589925     
 DIRECTION dim            4  value   -7.7515664828779043E-002
 DIRECTION dim            5  value   0.14348574375603179     
 DIRECTION dim            6  value  -0.17990871696816982     
 DIRECTION dim            7  value    5.1815683609310006E-002
 DIRECTION dim            8  value  -0.10509899809731485     
 DIRECTION dim            9  value   0.13900463041192893     
 DIRECTION dim           10  value    2.5745448617935294E-002
 DIRECTION dim           11  value  -0.14827661190916300     
 DIRECTION dim           12  value   0.12691699088312922     
 DIRECTION dim           13  value    3.7342817053731610E-002
 DIRECTION dim           14  value   0.18651793564722963     
 DIRECTION dim           15  value   0.28306176172241532     
 DIRECTION dim           16  value   -6.0082130093817833E-002
 DIRECTION dim           17  value  -0.12111611201115459     
 DIRECTION dim           18  value   0.25128821984571797     
 DIRECTION dim           19  value    8.1803539452564925E-003
 DIRECTION dim           20  value    3.2592429386946266E-002
 DIRECTION dim           21  value  -0.24332822628921147     
 DIRECTION dim           22  value    8.1282549580457743E-003
 DIRECTION dim           23  value   -3.2609485525165724E-002
 DIRECTION dim           24  value  -0.21371822474550034     
 DIRECTION dim           25  value    6.7441167928991741E-002
 DIRECTION dim           26  value   -6.7269407483505600E-002
 DIRECTION dim           27  value   0.20987712770214056     
 DIRECTION dim           28  value   -9.1771118748247116E-002
 DIRECTION dim           29  value   -9.9999863151914836E-002
 DIRECTION dim           30  value  -0.11363008156891763     
 DIRECTION dim           31  value    8.9816860883605212E-003
 DIRECTION dim           32  value   0.19350906487625141     
 DIRECTION dim           33  value  -0.16847194646605060     
 DIRECTION dim           34  value   -3.0597627119258460E-002
 DIRECTION dim           35  value    3.3620307000406219E-002
 DIRECTION dim           36  value   0.12001516267346142     
 DIRECTION dim           37  value    5.0124085175446758E-003
 DIRECTION dim           38  value   -6.7069892559541475E-002
 DIRECTION dim           39  value  -0.40133705232094263     
 DIRECTION dim           40  value   -3.7592155764302693E-002
 DIRECTION dim           41  value    2.0877097746190787E-002
 DIRECTION dim           42  value   0.52877346116058810     
 DIRECTION dim           43  value   0.28707046654522717     
 DIRECTION dim           44  value   0.18867070731060734     
 DIRECTION dim           45  value  -0.14622728677907801     
 DIRECTION dim           46  value    6.9475685274637058E-002
 DIRECTION dim           47  value    1.1183687617884195E-002
 DIRECTION dim           48  value   -2.6997508010857745E-002
  Cycle:     15 Energy:      -236.241167  Gnorm:     22.994424  CPU:    0.120
 ALPHA BEFORE:    8.0000000000000019E-003
 XC BEFORE:    3.4016710388003334E-003
  ** Opt : line minimisation
left   ...       0.00000000    -236.24116701
centre ...       0.00100000    -237.43474354
right  ...       0.00200000    -238.62587588

left   ...       0.00000000    -236.24116701
centre ...       0.00100000    -237.43474354
right  ...       0.00200000    -238.62587588
new    ...       0.00300000    -239.81417737

__s__    ...       0.00100000

left   ...       0.00100000    -237.43474354
centre ...       0.00200000    -238.62587588
right  ...       0.00300000    -239.81417737
new    ...       0.00400000    -240.99994066

__s__    ...       0.00100000

left   ...       0.00200000    -238.62587588
centre ...       0.00300000    -239.81417737
right  ...       0.00400000    -240.99994066
new    ...       0.00500000    -242.18299006

__s__    ...       0.00100000

left   ...       0.00300000    -239.81417737
centre ...       0.00400000    -240.99994066
right  ...       0.00500000    -242.18299006
new    ...       0.00600000    -243.36326628

__s__    ...       0.00100000

left   ...       0.00400000    -240.99994066
centre ...       0.00500000    -242.18299006
right  ...       0.00600000    -243.36326628
new    ...       0.00700000    -244.54074752

__s__    ...       0.00100000

left   ...       0.00500000    -242.18299006
centre ...       0.00600000    -243.36326628
right  ...       0.00700000    -244.54074752
new    ...       0.00800000    -245.71535330

__s__    ...       0.00100000

 ALPHA AFTER:    8.0000000000000019E-003
 XC AFTER:    3.7785787782473258E-003
 SANITY CHECK:    7.9999999999999846E-003
[...]
 DIRECTION dim           46  value   -1.5392869199136623E-003
 DIRECTION dim           47  value   -2.5763269581101519E-004
 DIRECTION dim           48  value    1.0151405535627718E-004
  Cycle:    148 Energy:      -470.187329  Gnorm:      0.014128  CPU:    0.897
 ALPHA BEFORE:   0.10050374392748276     
 XC BEFORE:    6.4441411421077861E-003
  ** Opt : line minimisation
left   ...       0.00000000    -470.18732930
centre ...       0.02512594    -470.18720931
right  ...      -0.02512594    -470.18727363

left   ...      -0.02512594    -470.18727363
centre ...       0.00000000    -470.18732930
right  ...       0.02512594    -470.18720931
new    ...      -0.00460048    -470.18731916

__s__    ...       0.02052546

left   ...      -0.00460048    -470.18731916
centre ...       0.00000000    -470.18732930
right  ...       0.02512594    -470.18720931
new    ...       0.00239344    -470.18715957

__s__    ...       0.00699392

left   ...      -0.00460048    -470.18731916
centre ...       0.00000000    -470.18732930
right  ...       0.00239344    -470.18715957
new    ...      -0.00219482    -470.18732446

__s__    ...      -0.00458826

left   ...      -0.00219482    -470.18732446
centre ...       0.00000000    -470.18732930
right  ...       0.00239344    -470.18715957
new    ...      -0.00102829    -470.18732703

__s__    ...       0.00116653

left   ...      -0.00102829    -470.18732703
centre ...       0.00000000    -470.18732930
right  ...       0.00239344    -470.18715957
new    ...      -0.00046262    -470.18732828

__s__    ...       0.00056568

left   ...      -0.00046262    -470.18732828
centre ...       0.00000000    -470.18732930
right  ...       0.00239344    -470.18715957
new    ...      -0.00018830    -470.18732888

__s__    ...       0.00027431

 ALPHA AFTER:   -1.8830385574291687E-004
 XC AFTER:    6.4441411421077861E-003
 SANITY CHECK:   -0.0000000000000000     
 DIRECTION dim            1  value   -4.1525061452768567E-004
 DIRECTION dim            2  value    1.6796198765754899E-007
 DIRECTION dim            3  value    4.0344905151487733E-004
 DIRECTION dim            4  value    2.1464716772390756E-005
 DIRECTION dim            5  value    9.9051686159155774E-004
 DIRECTION dim            6  value    5.3689778609966046E-004
 DIRECTION dim            7  value    1.6476159452716833E-003
 DIRECTION dim            8  value   -9.2126369937105539E-004
 DIRECTION dim            9  value   -3.1137270589739048E-004
 DIRECTION dim           10  value    1.2883840981988313E-003
 DIRECTION dim           11  value    6.2156179161170259E-004
 DIRECTION dim           12  value   -1.4018274756790304E-004
 DIRECTION dim           13  value    3.1458823498249339E-006
 DIRECTION dim           14  value   -2.4805275290316778E-004
 DIRECTION dim           15  value    3.7011068518057335E-004
 DIRECTION dim           16  value    1.8536626647435879E-004
 DIRECTION dim           17  value   -1.8237339655264736E-003
 DIRECTION dim           18  value   -1.0516562653281124E-004
 DIRECTION dim           19  value   -2.3829873825850474E-003
 DIRECTION dim           20  value    1.3094588857340303E-003
 DIRECTION dim           21  value    1.7813696552125588E-003
 DIRECTION dim           22  value   -5.6230462015012100E-005
 DIRECTION dim           23  value   -7.7202392414813577E-004
 DIRECTION dim           24  value   -3.0494968651979343E-004
 DIRECTION dim           25  value    1.4475424427152267E-003
 DIRECTION dim           26  value    1.4299839836266462E-003
 DIRECTION dim           27  value   -4.8497545234634182E-004
 DIRECTION dim           28  value    6.9400339540018504E-004
 DIRECTION dim           29  value   -1.8767568193836704E-004
 DIRECTION dim           30  value   -3.6721742077151082E-004
 DIRECTION dim           31  value    5.0537234128184342E-004
 DIRECTION dim           32  value   -1.1008366131226745E-002
 DIRECTION dim           33  value   -3.8764075535943051E-003
 DIRECTION dim           34  value    3.1120219486541667E-004
 DIRECTION dim           35  value    3.2458024295739551E-004
 DIRECTION dim           36  value    1.0790226891557246E-005
 DIRECTION dim           37  value   -4.5415571421019427E-005
 DIRECTION dim           38  value   -4.1706473876664750E-004
 DIRECTION dim           39  value    2.8138793706079905E-005
 DIRECTION dim           40  value   -1.3554306496893606E-004
 DIRECTION dim           41  value    5.1697179281920641E-004
 DIRECTION dim           42  value    4.8938389615583089E-004
 DIRECTION dim           43  value    1.3039619323814564E-004
 DIRECTION dim           44  value   -1.0143660533561594E-003
 DIRECTION dim           45  value    1.8492095316117549E-004
 DIRECTION dim           46  value   -2.2817410368784216E-003
 DIRECTION dim           47  value    9.5390323648651858E-005
 DIRECTION dim           48  value    1.5819922263849223E-004
  Cycle:    149 Energy:      -470.187329  Gnorm:      0.014128  CPU:    0.909
  ** Hessian calculated **
 ALPHA BEFORE:    1.0000000000000000     
 XC BEFORE:    6.4441411421077861E-003
  ** Opt : line minimisation
left   ...       0.00000000    -470.18732930
centre ...       0.10000000    -470.18720089
right  ...      -0.10000000    -470.18727900

left   ...      -0.10000000    -470.18727900
centre ...       0.00000000    -470.18732930
right  ...       0.10000000    -470.18720089
new    ...      -0.02185463    -470.18731862

__s__    ...       0.07814537

left   ...      -0.02185463    -470.18731862
centre ...       0.00000000    -470.18732930
right  ...       0.10000000    -470.18720089
new    ...       0.00586046    -470.18715713

__s__    ...       0.02771508

left   ...      -0.02185463    -470.18731862
centre ...       0.00000000    -470.18732930
right  ...       0.00586046    -470.18715713
new    ...      -0.01070070    -470.18732409

__s__    ...      -0.01656116

left   ...      -0.01070070    -470.18732409
centre ...       0.00000000    -470.18732930
right  ...       0.00586046    -470.18715713
new    ...      -0.00521551    -470.18732677

__s__    ...       0.00548519

left   ...      -0.00521551    -470.18732677
centre ...       0.00000000    -470.18732930
right  ...       0.00586046    -470.18715713
new    ...      -0.00251776    -470.18732808

__s__    ...       0.00269775

 ALPHA AFTER:   -2.5177579279473429E-003
 XC AFTER:    6.4441411421077861E-003
 SANITY CHECK:   -0.0000000000000000     
 DIRECTION dim            1  value   -5.5186639410619636E-005
 DIRECTION dim            2  value    4.5191701460557806E-005
 DIRECTION dim            3  value   -7.5432969075369233E-006
 DIRECTION dim            4  value    6.6950832762520754E-005
 DIRECTION dim            5  value    1.1953176055907623E-004
 DIRECTION dim            6  value    5.0279055503289103E-005
 DIRECTION dim            7  value    1.7773438145313110E-004
 DIRECTION dim            8  value   -2.3825075116845008E-006
 DIRECTION dim            9  value   -2.5294466697077867E-005
 DIRECTION dim           10  value   -4.1524602742348282E-006
 DIRECTION dim           11  value    4.6070429183574792E-005
 DIRECTION dim           12  value    3.7650736430641492E-006
 DIRECTION dim           13  value   -8.0084629354725887E-005
 DIRECTION dim           14  value   -9.6194269840637079E-005
 DIRECTION dim           15  value    2.5550693492905548E-005
 DIRECTION dim           16  value    3.0435381549748091E-005
 DIRECTION dim           17  value   -1.3728672600610747E-004
 DIRECTION dim           18  value   -1.1272569011176023E-005
 DIRECTION dim           19  value   -2.5721798357043074E-004
 DIRECTION dim           20  value    2.3597407413197435E-005
 DIRECTION dim           21  value    7.0971963926143842E-005
 DIRECTION dim           22  value   -7.3977572643106071E-008
 DIRECTION dim           23  value    1.3588299248908455E-005
 DIRECTION dim           24  value   -3.0220130776893880E-005
 DIRECTION dim           25  value    1.6862645211693838E-004
 DIRECTION dim           26  value   -6.6887473753254672E-004
 DIRECTION dim           27  value   -1.7183679314713524E-004
 DIRECTION dim           28  value    1.5841493564076490E-004
 DIRECTION dim           29  value    1.0831353586391066E-004
 DIRECTION dim           30  value    4.9174002637173720E-006
 DIRECTION dim           31  value    1.6567263669771472E-004
 DIRECTION dim           32  value    7.4169186404541663E-006
 DIRECTION dim           33  value   -9.8923057302536876E-005
 DIRECTION dim           34  value    5.2753214453123562E-005
 DIRECTION dim           35  value    1.4211306443011142E-005
 DIRECTION dim           36  value   -2.2117086323358453E-005
 DIRECTION dim           37  value    1.3468478513810422E-006
 DIRECTION dim           38  value   -1.3292946190077075E-004
 DIRECTION dim           39  value    7.9008111423160710E-006
 DIRECTION dim           40  value   -5.4858340778234999E-005
 DIRECTION dim           41  value    7.8739767406847032E-005
 DIRECTION dim           42  value    1.7457181434394797E-005
 DIRECTION dim           43  value    3.1969300434803486E-004
 DIRECTION dim           44  value    2.8268094874463243E-005
 DIRECTION dim           45  value    3.2874219655844051E-004
 DIRECTION dim           46  value   -2.0262094242617243E-004
 DIRECTION dim           47  value    4.1981017053632866E-004
 DIRECTION dim           48  value    2.8681942512048582E-006
  Cycle:    150 Energy:      -470.187329  Gnorm:      0.014128  CPU:    0.922
  ** Hessian calculated **
 ALPHA BEFORE:    1.0000000000000000     
 XC BEFORE:    6.4441411421077861E-003
  ** Opt : line minimisation
left   ...       0.00000000    -470.18732930
centre ...       0.10000000    -470.18720089
right  ...      -0.10000000    -470.18727900

left   ...      -0.10000000    -470.18727900
centre ...       0.00000000    -470.18732930
right  ...       0.10000000    -470.18720089
new    ...      -0.02185463    -470.18731862

__s__    ...       0.07814537

left   ...      -0.02185463    -470.18731862
centre ...       0.00000000    -470.18732930
right  ...       0.10000000    -470.18720089
new    ...       0.00586046    -470.18715713

__s__    ...       0.02771508

left   ...      -0.02185463    -470.18731862
centre ...       0.00000000    -470.18732930
right  ...       0.00586046    -470.18715713
new    ...      -0.01070070    -470.18732409

__s__    ...      -0.01656116

left   ...      -0.01070070    -470.18732409
centre ...       0.00000000    -470.18732930
right  ...       0.00586046    -470.18715713
new    ...      -0.00521551    -470.18732677

__s__    ...       0.00548519

left   ...      -0.00521551    -470.18732677
centre ...       0.00000000    -470.18732930
right  ...       0.00586046    -470.18715713
new    ...      -0.00251776    -470.18732808

__s__    ...       0.00269775

 ALPHA AFTER:   -2.5177579279473429E-003
 XC AFTER:    6.4441411421077861E-003
 SANITY CHECK:   -0.0000000000000000     
 DIRECTION dim            1  value   -5.5186639410619636E-005
 DIRECTION dim            2  value    4.5191701460557806E-005
 DIRECTION dim            3  value   -7.5432969075369233E-006
 DIRECTION dim            4  value    6.6950832762520754E-005
 DIRECTION dim            5  value    1.1953176055907623E-004
 DIRECTION dim            6  value    5.0279055503289103E-005
 DIRECTION dim            7  value    1.7773438145313110E-004
 DIRECTION dim            8  value   -2.3825075116845008E-006
 DIRECTION dim            9  value   -2.5294466697077867E-005
 DIRECTION dim           10  value   -4.1524602742348282E-006
 DIRECTION dim           11  value    4.6070429183574792E-005
 DIRECTION dim           12  value    3.7650736430641492E-006
 DIRECTION dim           13  value   -8.0084629354725887E-005
 DIRECTION dim           14  value   -9.6194269840637079E-005
 DIRECTION dim           15  value    2.5550693492905548E-005
 DIRECTION dim           16  value    3.0435381549748091E-005
 DIRECTION dim           17  value   -1.3728672600610747E-004
 DIRECTION dim           18  value   -1.1272569011176023E-005
 DIRECTION dim           19  value   -2.5721798357043074E-004
 DIRECTION dim           20  value    2.3597407413197435E-005
 DIRECTION dim           21  value    7.0971963926143842E-005
 DIRECTION dim           22  value   -7.3977572643106071E-008
 DIRECTION dim           23  value    1.3588299248908455E-005
 DIRECTION dim           24  value   -3.0220130776893880E-005
 DIRECTION dim           25  value    1.6862645211693838E-004
 DIRECTION dim           26  value   -6.6887473753254672E-004
 DIRECTION dim           27  value   -1.7183679314713524E-004
 DIRECTION dim           28  value    1.5841493564076490E-004
 DIRECTION dim           29  value    1.0831353586391066E-004
 DIRECTION dim           30  value    4.9174002637173720E-006
 DIRECTION dim           31  value    1.6567263669771472E-004
 DIRECTION dim           32  value    7.4169186404541663E-006
 DIRECTION dim           33  value   -9.8923057302536876E-005
 DIRECTION dim           34  value    5.2753214453123562E-005
 DIRECTION dim           35  value    1.4211306443011142E-005
 DIRECTION dim           36  value   -2.2117086323358453E-005
 DIRECTION dim           37  value    1.3468478513810422E-006
 DIRECTION dim           38  value   -1.3292946190077075E-004
 DIRECTION dim           39  value    7.9008111423160710E-006
 DIRECTION dim           40  value   -5.4858340778234999E-005
 DIRECTION dim           41  value    7.8739767406847032E-005
 DIRECTION dim           42  value    1.7457181434394797E-005
 DIRECTION dim           43  value    3.1969300434803486E-004
 DIRECTION dim           44  value    2.8268094874463243E-005
 DIRECTION dim           45  value    3.2874219655844051E-004
 DIRECTION dim           46  value   -2.0262094242617243E-004
 DIRECTION dim           47  value    4.1981017053632866E-004
 DIRECTION dim           48  value    2.8681942512048582E-006


  **** Conditions for a minimum have not been satisfied. However ****
  **** no lower point can be found - treat results with caution  ****
  **** unless gradient norm is small (less than 0.1)             ****


  Final energy =    -470.18732930 eV
  Final Gnorm  =       0.01412788

  Components of energy : 

--------------------------------------------------------------------------------
  Interatomic potentials     =          73.04882653 eV    
  Monopole - monopole (real) =        -281.20943930 eV    
  Monopole - monopole (recip)=        -262.02671652 eV    
  Monopole - monopole (total)=        -543.23615582 eV    
--------------------------------------------------------------------------------
  Total lattice energy       =        -470.18732930 eV    
--------------------------------------------------------------------------------
  Total lattice energy       =          -45365.8898 kJ/(mole unit cells)
--------------------------------------------------------------------------------

  Final fractional coordinates of atoms :

--------------------------------------------------------------------------------
   No.  Atomic        x           y          z          Radius
        Label       (Frac)      (Frac)     (Frac)       (Angs) 
--------------------------------------------------------------------------------
     1  O     c     0.000000    0.333330    0.000000    0.000000
     2  O     c     0.006444    0.941429    0.244409    0.000000
     3  O     c     0.497854    0.078342    0.244541    0.000000
     4  O     c     0.250985    0.633393    0.723747    0.000000
     5  O     c     0.981752    0.334351    0.257740    0.000000
     6  O     c     0.951284    0.840650    0.014797    0.000000
     7  O     c     0.483838    0.663690    0.905452    0.000000
     8  O     c     0.261604    0.467582    0.388668    0.000000
     9  O     c     0.913462    0.032108    0.522362    0.000000
    10  Sr    c     0.619478    0.631870    0.451358    0.000000
    11  Sr    c     0.394585    0.669998    0.155270    0.000000
    12  Sr    c     0.917687    0.849360    0.707568    0.000000
    13  Ti    c     0.886280    0.108173    0.143406    0.000000
    14  Ti    c     0.170805    0.605874    0.905031    0.000000
    15  Ti    c     0.131834    0.179335    0.351982    0.000000
--------------------------------------------------------------------------------

  Final Cartesian lattice vectors (Angstroms) :

        5.491542   -0.273046    1.221273
       -0.409570    5.720518   -0.156831
        3.663820   -0.313663   10.023063


  Final cell parameters and derivatives :

--------------------------------------------------------------------------------
       a            5.632326 Angstrom     dE/de1(xx)    -0.181162 eV/strain
       b            5.737305 Angstrom     dE/de2(yy)    -0.017135 eV/strain
       c           10.676318 Angstrom     dE/de3(zz)    -0.210771 eV/strain
       alpha       94.557195 Degrees      dE/de4(yz)     0.037575 eV/strain
       beta        57.344640 Degrees      dE/de5(xz)    -0.085627 eV/strain
       gamma       97.115304 Degrees      dE/de6(xy)    -0.000449 eV/strain
--------------------------------------------------------------------------------

  Primitive cell volume =           288.195292 Angs**3

  Density of cell =      3.171951 g/cm**3

  Non-primitive cell volume =           288.195292 Angs**3


  Final internal derivatives :

--------------------------------------------------------------------------------
   No.  Atomic          a             b             c           Radius
        Label          (eV)          (eV)          (eV)        (eV/Angs)
--------------------------------------------------------------------------------
      1 O     c       0.000000      0.000000      0.000000      0.000000
      2 O     c       0.042983     -0.049839      0.025955      0.000000
      3 O     c      -0.096800     -0.085210     -0.089462      0.000000
      4 O     c      -0.096139      0.000748      0.153862      0.000000
      5 O     c       0.003391     -0.054282     -0.013162      0.000000
      6 O     c       0.055593      0.125152     -0.074928      0.000000
      7 O     c      -0.049486      0.039927      0.034271      0.000000
      8 O     c       0.148666     -0.023348     -0.157174      0.000000
      9 O     c       0.000021     -0.008121      0.122332      0.000000
     10 Sr    c      -0.036290      0.121475      0.167511      0.000000
     11 Sr    c      -0.046906     -0.042628     -0.007587      0.000000
     12 Sr    c      -0.055826     -0.001470      0.144347      0.000000
     13 Ti    c      -0.094996     -0.023743      0.148281      0.000000
     14 Ti    c      -0.002833      0.250721     -0.069783      0.000000
     15 Ti    c       0.085804     -0.148575     -0.122565      0.000000
--------------------------------------------------------------------------------
  Maximum abs         0.148666      0.250721      0.167511      0.000000
--------------------------------------------------------------------------------


  Time to end of optimisation =       0.9345 seconds

 Exiting ------OPTIONS------

  Peak dynamic memory used =       0.60 MB 


  Timing analysis for GULP :

--------------------------------------------------------------------------------
  Task / Subroutine                                          Time (Seconds)
--------------------------------------------------------------------------------
  Calculation of reciprocal space energy and derivatives          0.1030
  Calculation of real space energy and derivatives                0.8083
  Calculation of matrix inversion                                 0.0004
  Global summation overhead                                       0.0005
--------------------------------------------------------------------------------
  Total CPU time                                                  0.9345
--------------------------------------------------------------------------------


  Job Finished at 13:26.51 21st February   2020                               

