********************************************************************************
*                       GENERAL UTILITY LATTICE PROGRAM                        *
*                                 Julian Gale                                  *
*                       Curtin Institute for Computation                       *
*                           Department of Chemistry                            *
*                    Curtin University, Western Australia                      *
********************************************************************************
* Version = 5.1.1 * Last modified =  25th August 2019                          *
********************************************************************************
*  optimise     - perform optimisation run                                     *
*  conp         - constant pressure calculation                                *
*  nosymmetry   - turn off symmetry after initial structure generation         *
*  full         - generate full unit cell when symmetry is removed             *
*  conjugate    - use conjugate gradients minimiser                            *
********************************************************************************
* ASE calculation                                                              *
********************************************************************************


  Job Started  at 13:26.45 21st February   2020                               

  Number of CPUs =     1


  Total number of configurations input =      1

********************************************************************************
*  Input for Configuration =   1                                               *
********************************************************************************

  Formula = O9Sr3Ti3                                                    

  Number of irreducible atoms/shells =      15


  Total number atoms/shells =      15

  Dimensionality = 3               :  Bulk   



  Cartesian lattice vectors (Angstroms) :

        6.000000    0.000000    0.000000
        0.000000    6.000000    0.000000
        0.000000    0.000000   12.000000

  Cell parameters (Angstroms/Degrees):

  a =       6.0000    alpha =  90.0000
  b =       6.0000    beta  =  90.0000
  c =      12.0000    gamma =  90.0000

  Initial cell volume =         432.000000 Angs**3

  Temperature of configuration =  0.000     K 

  Pressure of configuration =         0.000 GPa 

  Fractional coordinates of asymmetric unit :

--------------------------------------------------------------------------------
   No.  Atomic       x           y          z         Charge      Occupancy
        Label      (Frac)      (Frac)     (Frac)        (e)         (Frac)  
--------------------------------------------------------------------------------
      1 O     c    0.000000    0.333330    0.833330    -2.00000    1.000000    
      2 O     c    0.666670 *  0.666670 *  0.000000 *  -2.00000    1.000000    
      3 O     c    0.333330 *  0.666670 *  0.166670 *  -2.00000    1.000000    
      4 O     c    0.333330 *  0.000000 *  0.166670 *  -2.00000    1.000000    
      5 O     c    0.333330 *  0.333330 *  0.166670 *  -2.00000    1.000000    
      6 O     c    0.333330 *  0.333330 *  0.833330 *  -2.00000    1.000000    
      7 O     c    0.333330 *  0.000000 *  0.500000 *  -2.00000    1.000000    
      8 O     c    0.666670 *  0.000000 *  0.000000 *  -2.00000    1.000000    
      9 O     c    0.666670 *  0.000000 *  0.166670 *  -2.00000    1.000000    
     10 Sr    c    0.500000 *  0.833330 *  0.916670 *   2.00000    1.000000    
     11 Sr    c    0.166670 *  0.500000 *  0.916670 *   2.00000    1.000000    
     12 Sr    c    0.166670 *  0.833330 *  0.416670 *   2.00000    1.000000    
     13 Ti    c    0.833330 *  0.500000 *  0.416670 *   4.00000    1.000000    
     14 Ti    c    0.166670 *  0.166670 *  0.916670 *   4.00000    1.000000    
     15 Ti    c    0.833330 *  0.833330 *  0.583330 *   4.00000    1.000000    
--------------------------------------------------------------------------------



********************************************************************************
*  General input information                                                   *
********************************************************************************

  Species output for all configurations : 

--------------------------------------------------------------------------------
  Species    Type    Atomic    Atomic    Charge       Radii (Angs)     Library
                     Number     Mass       (e)     Cova   Ionic  VDW   Symbol
--------------------------------------------------------------------------------
    O        Core        8      16.00  -2.000000   0.730  0.000  1.360          
    Sr       Core       38      87.62   2.000000   1.120  0.000  1.670          
    Ti       Core       22      47.88   4.000000   1.470  0.000  2.190          
--------------------------------------------------------------------------------


  Lattice summation method               =    Ewald          (3-D)
                                         =    Parry          (2-D)
                                         =    Saunders et al (1-D)
  Accuracy factor for lattice sums       =   12.000


  Time limit = Infinity

  Maximum range for interatomic potentials =    100000.000000 Angstroms

  General interatomic potentials :

--------------------------------------------------------------------------------
Atom  Types   Potential      Parameter       Value         Units   Cutoffs(Ang)
  1     2                                                            Min /  Max 
--------------------------------------------------------------------------------
O    c Sr   c Buckingham    Buckingham A     1952.3900    eV        0.000 10.000
                            Buckingham rho  0.33685000    Ang       
                            Buckingham C     19.220000    eV*Ang^6  
--------------------------------------------------------------------------------
O    c Ti   c Buckingham    Buckingham A     4590.7279    eV        0.000 10.000
                            Buckingham rho  0.26100000    Ang       
                            Buckingham C     0.0000000    eV*Ang^6  
--------------------------------------------------------------------------------
O    c O    c Buckingham    Buckingham A     1388.7700    eV        0.000 10.000
                            Buckingham rho  0.36262000    Ang       
                            Buckingham C     175.00000    eV*Ang^6  
--------------------------------------------------------------------------------
 Calling ------OPTIONS------

********************************************************************************
*  Output for configuration   1                                                *
********************************************************************************


  Components of energy : 

--------------------------------------------------------------------------------
  Interatomic potentials     =          86.73882635 eV    
  Monopole - monopole (real) =         -15.03500613 eV    
  Monopole - monopole (recip)=        -125.05826005 eV    
  Monopole - monopole (total)=        -140.09326618 eV    
--------------------------------------------------------------------------------
  Total lattice energy       =         -53.35443983 eV    
--------------------------------------------------------------------------------
  Total lattice energy       =           -5147.8878 kJ/(mole unit cells)
--------------------------------------------------------------------------------


  Number of variables =       48

  Maximum number of calculations  =          1000
  Maximum Hessian update interval =            10
  Maximum step size               =   0.001000000
  Maximum parameter tolerance     =   0.000010000
  Maximum function  tolerance     =   0.000010000
  Maximum gradient  tolerance     =   0.001000000
  Maximum gradient  component     =   0.010000000

  Cell parameters to be optimised using strains

  Conjugate gradient optimiser to be used

  Lower half triangular hessian to be used

  Minimiser to switch to BFGS with exact hessian
  When gradient norm is less than     0.500000

  Switch max step size to       0.10000000 when gnorm is less than    10.000000

  Start of bulk optimisation :

  Cycle:      0 Energy:       -53.354440  Gnorm:     31.391907  CPU:    0.012
 Perform trimming
 ALPHA BEFORE:    1.0000000000000000     
 XC BEFORE:   0.66666999999995369     
  ** Opt : line minimisation
left   ...       0.00000000     -53.35443983
centre ...       0.00100000     -53.65256481
right  ...       0.00200000     -53.95106019

left   ...       0.00000000     -53.35443983
centre ...       0.00100000     -53.65256481
right  ...       0.00200000     -53.95106019
new    ...       0.00300000     -54.24922626

__s__    ...       0.00100000

left   ...       0.00100000     -53.65256481
centre ...       0.00200000     -53.95106019
right  ...       0.00300000     -54.24922626
new    ...       0.00400000     -54.54706330

__s__    ...       0.00100000

left   ...       0.00200000     -53.95106019
centre ...       0.00300000     -54.24922626
right  ...       0.00400000     -54.54706330
new    ...       0.00500000     -54.84457165

__s__    ...       0.00100000

 ALPHA AFTER:    5.0000000000000010E-003
 XC AFTER:   0.66672935584587423     
 SANITY CHECK:    4.9999999999958255E-003
 DIRECTION dim            1  value    1.1871169184117710E-002
 DIRECTION dim            2  value   -2.2883700459662395E-002
 DIRECTION dim            3  value   -2.3843091545488485E-002
 DIRECTION dim            4  value   -8.2238287666695099E-003
 DIRECTION dim            5  value   -3.9216727748924299E-003
 DIRECTION dim            6  value    1.9955267197757001E-002
 DIRECTION dim            7  value   -2.0237226194232769E-002
 DIRECTION dim            8  value    6.6049966713979799E-004
 DIRECTION dim            9  value    1.4197310029540061E-002
 DIRECTION dim           10  value   -7.1451370335926792E-003
 DIRECTION dim           11  value    3.2612025758721620E-003
 DIRECTION dim           12  value    1.2260873951347355E-002
 DIRECTION dim           13  value    1.4514070341848052E-002
 DIRECTION dim           14  value   -1.1148518403830682E-002
 DIRECTION dim           15  value   -3.9152042157776283E-002
 DIRECTION dim           16  value    6.0709968026708078E-003
 DIRECTION dim           17  value    3.3187647077868995E-003
 DIRECTION dim           18  value    3.6379535616036976E-002
 DIRECTION dim           19  value    1.1840325684096299E-002
 DIRECTION dim           20  value    2.1354431054224680E-002
 DIRECTION dim           21  value   -5.0376108909605075E-002
 DIRECTION dim           22  value    2.1223420581088611E-002
 DIRECTION dim           23  value    1.9940538609815412E-003
 DIRECTION dim           24  value    4.9226201647651749E-002
 DIRECTION dim           25  value   -8.1460482237406661E-003
 DIRECTION dim           26  value   -1.6911630902901088E-003
 DIRECTION dim           27  value    1.3213261012819368E-002
 DIRECTION dim           28  value   -2.7755416317822707E-004
 DIRECTION dim           29  value    2.8998364746560645E-002
 DIRECTION dim           30  value    6.6904221405136688E-002
 DIRECTION dim           31  value    5.0356545816174231E-003
 DIRECTION dim           32  value   -9.8794437203281117E-004
 DIRECTION dim           33  value   -6.3023137286287195E-002
 DIRECTION dim           34  value   -6.2181722875826627E-003
 DIRECTION dim           35  value   -1.4502076601907344E-002
 DIRECTION dim           36  value   -8.8424783221529787E-002
 DIRECTION dim           37  value   -2.9864791676973020E-004
 DIRECTION dim           38  value   -5.2266042596527526E-003
 DIRECTION dim           39  value    6.4763041084671832E-002
 DIRECTION dim           40  value   -5.0249392620509720E-003
 DIRECTION dim           41  value    1.1961316106363374E-002
 DIRECTION dim           42  value    2.9300010253938188E-002
 DIRECTION dim           43  value    2.3483098293464778E-002
 DIRECTION dim           44  value    5.4010485140655422E-002
 DIRECTION dim           45  value   -3.3327403219015277E-002
 DIRECTION dim           46  value    1.0626043912339725E-002
 DIRECTION dim           47  value   -3.6224909656252784E-003
 DIRECTION dim           48  value    1.7212110869048096E-003
  Cycle:      1 Energy:       -54.844572  Gnorm:     31.219937  CPU:    0.023
 Perform trimming
 ALPHA BEFORE:    5.0000000000000010E-003
 XC BEFORE:   0.66672935584587423     
  ** Opt : line minimisation
left   ...       0.00000000     -54.84457165
centre ...       0.00100000     -55.29022361
right  ...       0.00200000     -55.73514154

left   ...       0.00000000     -54.84457165
centre ...       0.00100000     -55.29022361
right  ...       0.00200000     -55.73514154
new    ...       0.00300000     -56.17932646

__s__    ...       0.00100000

left   ...       0.00100000     -55.29022361
centre ...       0.00200000     -55.73514154
right  ...       0.00300000     -56.17932646
new    ...       0.00400000     -56.62277944

__s__    ...       0.00100000

left   ...       0.00200000     -55.73514154
centre ...       0.00300000     -56.17932646
right  ...       0.00400000     -56.62277944
new    ...       0.00500000     -57.06550151

__s__    ...       0.00100000

 ALPHA AFTER:    5.0000000000000010E-003
 XC AFTER:   0.66681893298362382     
 SANITY CHECK:    5.0000000000145362E-003
 DIRECTION dim            1  value    1.7915427549867288E-002
 DIRECTION dim            2  value   -3.4466289163174284E-002
 DIRECTION dim            3  value   -3.5698116588170598E-002
 DIRECTION dim            4  value   -1.2380811918028947E-002
 DIRECTION dim            5  value   -5.8925027572974773E-003
 DIRECTION dim            6  value    3.0069219265949132E-002
 DIRECTION dim            7  value   -3.0469338227226788E-002
 DIRECTION dim            8  value    9.9050756388883586E-004
 DIRECTION dim            9  value    2.1263425442287574E-002
 DIRECTION dim           10  value   -1.0770872860482301E-002
 DIRECTION dim           11  value    4.9018416927193954E-003
 DIRECTION dim           12  value    1.8398010401177146E-002
 DIRECTION dim           13  value    2.1526367995408486E-002
 DIRECTION dim           14  value   -1.6683276081605917E-002
 DIRECTION dim           15  value   -5.8231769628024795E-002
 DIRECTION dim           16  value    8.9736011002497281E-003
 DIRECTION dim           17  value    4.8166929511127598E-003
 DIRECTION dim           18  value    5.4391548003078237E-002
 DIRECTION dim           19  value    1.7899003363890290E-002
 DIRECTION dim           20  value    3.2233809408858068E-002
 DIRECTION dim           21  value   -7.5381877844257858E-002
 DIRECTION dim           22  value    3.1960627724359647E-002
 DIRECTION dim           23  value    2.9763194524053942E-003
 DIRECTION dim           24  value    7.3948149508746397E-002
 DIRECTION dim           25  value   -1.2396440322116956E-002
 DIRECTION dim           26  value   -2.5927322158773086E-003
 DIRECTION dim           27  value    1.9633747781820858E-002
 DIRECTION dim           28  value   -3.2544967725582239E-004
 DIRECTION dim           29  value    4.3315363384381425E-002
 DIRECTION dim           30  value   0.10010669074373976     
 DIRECTION dim           31  value    7.7480784292639068E-003
 DIRECTION dim           32  value   -1.3078577734757686E-003
 DIRECTION dim           33  value   -9.4646768749196614E-002
 DIRECTION dim           34  value   -9.3819196980347106E-003
 DIRECTION dim           35  value   -2.1763386486587981E-002
 DIRECTION dim           36  value  -0.13310537694743405     
 DIRECTION dim           37  value   -3.9771036570839511E-004
 DIRECTION dim           38  value   -7.6777238725600390E-003
 DIRECTION dim           39  value    9.6862798521431218E-002
 DIRECTION dim           40  value   -7.5412515138568257E-003
 DIRECTION dim           41  value    1.7941519186907513E-002
 DIRECTION dim           42  value    4.4162502355104119E-002
 DIRECTION dim           43  value    3.5047361238190314E-002
 DIRECTION dim           44  value    8.1061683307730406E-002
 DIRECTION dim           45  value   -5.0138783748521508E-002
 DIRECTION dim           46  value    1.5977161148409792E-002
 DIRECTION dim           47  value   -5.4508311354618550E-003
 DIRECTION dim           48  value    2.5784848536041316E-003
  Cycle:      2 Energy:       -57.065502  Gnorm:     30.964878  CPU:    0.031
 Perform trimming
 ALPHA BEFORE:    5.0000000000000010E-003
 XC BEFORE:   0.66681893298362382     
  ** Opt : line minimisation
left   ...       0.00000000     -57.06550151
centre ...       0.00100000     -57.72823340
right  ...       0.00200000     -58.38933927

left   ...       0.00000000     -57.06550151
centre ...       0.00100000     -57.72823340
right  ...       0.00200000     -58.38933927
new    ...       0.00300000     -59.04882264

__s__    ...       0.00100000

left   ...       0.00100000     -57.72823340
centre ...       0.00200000     -58.38933927
right  ...       0.00300000     -59.04882264
new    ...       0.00400000     -59.70668702

__s__    ...       0.00100000

left   ...       0.00200000     -58.38933927
centre ...       0.00300000     -59.04882264
right  ...       0.00400000     -59.70668702
new    ...       0.00500000     -60.36293598

__s__    ...       0.00100000

left   ...       0.00300000     -59.04882264
centre ...       0.00400000     -59.70668702
right  ...       0.00500000     -60.36293598
new    ...       0.00600000     -61.01757305

__s__    ...       0.00100000

left   ...       0.00400000     -59.70668702
centre ...       0.00500000     -60.36293598
right  ...       0.00600000     -61.01757305
new    ...       0.00700000     -61.67060183

__s__    ...       0.00100000

left   ...       0.00500000     -60.36293598
centre ...       0.00600000     -61.01757305
right  ...       0.00700000     -61.67060183
new    ...       0.00800000     -62.32202591

__s__    ...       0.00100000

 ALPHA AFTER:    8.0000000000000019E-003
 XC AFTER:   0.66703587269375042     
 SANITY CHECK:    8.0000000000090155E-003
 DIRECTION dim            1  value    2.7117463765793905E-002
 DIRECTION dim            2  value   -5.2013620256615448E-002
 DIRECTION dim            3  value   -5.3395502023636181E-002
 DIRECTION dim            4  value   -1.8672509951986382E-002
 DIRECTION dim            5  value   -8.8600942190972982E-003
 DIRECTION dim            6  value    4.5411709946246305E-002
 DIRECTION dim            7  value   -4.5958825879407049E-002
 DIRECTION dim            8  value    1.4851367546694445E-003
 DIRECTION dim            9  value    3.1819980215131397E-002
 DIRECTION dim           10  value   -1.6276170924140985E-002
 DIRECTION dim           11  value    7.3742815486215743E-003
 DIRECTION dim           12  value    2.7609813057499738E-002
 DIRECTION dim           13  value    3.1749988292589987E-002
 DIRECTION dim           14  value   -2.4935421668951619E-002
 DIRECTION dim           15  value   -8.6232133362254909E-002
 DIRECTION dim           16  value    1.3162563829704288E-002
 DIRECTION dim           17  value    6.8625026386207695E-003
 DIRECTION dim           18  value    8.1177648535438254E-002
 DIRECTION dim           19  value    2.7161541094825853E-002
 DIRECTION dim           20  value    4.8804277811738905E-002
 DIRECTION dim           21  value  -0.11265737247406606     
 DIRECTION dim           22  value    4.8222250370937698E-002
 DIRECTION dim           23  value    4.4310541856976676E-003
 DIRECTION dim           24  value   0.11116549882929648     
 DIRECTION dim           25  value   -1.8994617381498262E-002
 DIRECTION dim           26  value   -4.0162950016097553E-003
 DIRECTION dim           27  value    2.9035173938242891E-002
 DIRECTION dim           28  value   -2.8893598637131518E-004
 DIRECTION dim           29  value    6.4568098569599358E-002
 DIRECTION dim           30  value   0.14959147419168869     
 DIRECTION dim           31  value    1.2058335455832269E-002
 DIRECTION dim           32  value   -1.5710202757486431E-003
 DIRECTION dim           33  value  -0.14221463256281028     
 DIRECTION dim           34  value   -1.4196351499770752E-002
 DIRECTION dim           35  value   -3.2666700001131629E-002
 DIRECTION dim           36  value  -0.20070813634625634     
 DIRECTION dim           37  value   -4.8712287222625036E-004
 DIRECTION dim           38  value   -1.1158494204790578E-002
 DIRECTION dim           39  value   0.14465761244003206     
 DIRECTION dim           40  value   -1.1319941009388742E-002
 DIRECTION dim           41  value    2.6910073424285676E-002
 DIRECTION dim           42  value    6.6718854024176877E-002
 DIRECTION dim           43  value    5.2168800417971527E-002
 DIRECTION dim           44  value   0.12169081260840975     
 DIRECTION dim           45  value   -7.5540363164193172E-002
 DIRECTION dim           46  value    2.4049713977414455E-002
 DIRECTION dim           47  value   -8.2158021639064729E-003
 DIRECTION dim           48  value    3.8605509715788633E-003
  Cycle:      3 Energy:       -62.322026  Gnorm:     30.366455  CPU:    0.040
 Perform trimming
 ALPHA BEFORE:    8.0000000000000019E-003
 XC BEFORE:   0.66703587269375042     
  ** Opt : line minimisation
left   ...       0.00000000     -62.32202591
centre ...       0.00100000     -63.29628361
right  ...       0.00200000     -64.26701680

left   ...       0.00000000     -62.32202591
centre ...       0.00100000     -63.29628361
right  ...       0.00200000     -64.26701680
new    ...       0.00300000     -65.23423717

__s__    ...       0.00100000

left   ...       0.00100000     -63.29628361
centre ...       0.00200000     -64.26701680
right  ...       0.00300000     -65.23423717
new    ...       0.00400000     -66.19795647

__s__    ...       0.00100000

left   ...       0.00200000     -64.26701680
centre ...       0.00300000     -65.23423717
right  ...       0.00400000     -66.19795647
new    ...       0.00500000     -67.15818652

__s__    ...       0.00100000

left   ...       0.00300000     -65.23423717
centre ...       0.00400000     -66.19795647
right  ...       0.00500000     -67.15818652
new    ...       0.00600000     -68.11493920

__s__    ...       0.00100000

left   ...       0.00400000     -66.19795647
centre ...       0.00500000     -67.15818652
right  ...       0.00600000     -68.11493920
new    ...       0.00700000     -69.06822644

__s__    ...       0.00100000

left   ...       0.00500000     -67.15818652
centre ...       0.00600000     -68.11493920
right  ...       0.00700000     -69.06822644
new    ...       0.00800000     -70.01806024

__s__    ...       0.00100000

 ALPHA AFTER:    8.0000000000000019E-003
 XC AFTER:   0.66736834365190223     
 SANITY CHECK:    8.0000000000024930E-003
 DIRECTION dim            1  value    4.1558869768963204E-002
 DIRECTION dim            2  value   -7.9143181738365598E-002
 DIRECTION dim            3  value   -7.9527438622784968E-002
 DIRECTION dim            4  value   -2.8374211544012463E-002
 DIRECTION dim            5  value   -1.3364299831237247E-002
 DIRECTION dim            6  value    6.9235407910609184E-002
 DIRECTION dim            7  value   -6.9855091258263419E-002
 DIRECTION dim            8  value    2.2249966890288226E-003
 DIRECTION dim            9  value    4.7431801564624704E-002
 DIRECTION dim           10  value   -2.4849211881923943E-002
 DIRECTION dim           11  value    1.1136643818417277E-002
 DIRECTION dim           12  value    4.1443371994425347E-002
 DIRECTION dim           13  value    4.5752299231277556E-002
 DIRECTION dim           14  value   -3.7073486485780065E-002
 DIRECTION dim           15  value  -0.12531859145641822     
 DIRECTION dim           16  value    1.8677695822962807E-002
 DIRECTION dim           17  value    8.9887011962427165E-003
 DIRECTION dim           18  value   0.12022768039884148     
 DIRECTION dim           19  value    4.1883451267657010E-002
 DIRECTION dim           20  value    7.4841432252862661E-002
 DIRECTION dim           21  value  -0.16744768927995574     
 DIRECTION dim           22  value    7.3342302372680940E-002
 DIRECTION dim           23  value    6.5246927586994465E-003
 DIRECTION dim           24  value   0.16761535377996500     
 DIRECTION dim           25  value   -2.9946685953885312E-002
 DIRECTION dim           26  value   -6.4933546514956029E-003
 DIRECTION dim           27  value    4.2069469003158069E-002
 DIRECTION dim           28  value    2.5154825284065806E-004
 DIRECTION dim           29  value    9.5419290499863932E-002
 DIRECTION dim           30  value   0.22227659166984101     
 DIRECTION dim           31  value    1.9652825534022610E-002
 DIRECTION dim           32  value   -9.5047808624438397E-004
 DIRECTION dim           33  value  -0.21414667380502775     
 DIRECTION dim           34  value   -2.1744245137761829E-002
 DIRECTION dim           35  value   -4.9069524932940124E-002
 DIRECTION dim           36  value  -0.30482645970733985     
 DIRECTION dim           37  value   -3.5942089499912836E-004
 DIRECTION dim           38  value   -1.5489914035558706E-002
 DIRECTION dim           39  value   0.21466032744272096     
 DIRECTION dim           40  value   -1.7005559557135581E-002
 DIRECTION dim           41  value    4.0350730380080933E-002
 DIRECTION dim           42  value   0.10177559161801444     
 DIRECTION dim           43  value    7.6781026003525918E-002
 DIRECTION dim           44  value   0.18287002306280703     
 DIRECTION dim           45  value  -0.11451982028363274     
 DIRECTION dim           46  value    3.6365388245060117E-002
 DIRECTION dim           47  value   -1.2476285286302969E-002
 DIRECTION dim           48  value    5.7674643456712416E-003
  Cycle:      4 Energy:       -70.018060  Gnorm:     29.506604  CPU:    0.047
 Perform trimming
 ALPHA BEFORE:    8.0000000000000019E-003
 XC BEFORE:   0.66736834365190223     
  ** Opt : line minimisation
left   ...       0.00000000     -70.01806024
centre ...       0.00100000     -71.43675329
right  ...       0.00200000     -72.84795303

left   ...       0.00000000     -70.01806024
centre ...       0.00100000     -71.43675329
right  ...       0.00200000     -72.84795303
new    ...       0.00300000     -74.25167829

__s__    ...       0.00100000

left   ...       0.00100000     -71.43675329
centre ...       0.00200000     -72.84795303
right  ...       0.00300000     -74.25167829
new    ...       0.00400000     -75.64800570

__s__    ...       0.00100000

left   ...       0.00200000     -72.84795303
centre ...       0.00300000     -74.25167829
right  ...       0.00400000     -75.64800570
new    ...       0.00500000     -77.03695441

__s__    ...       0.00100000

left   ...       0.00300000     -74.25167829
centre ...       0.00400000     -75.64800570
right  ...       0.00500000     -77.03695441
new    ...       0.00600000     -78.41854381

__s__    ...       0.00100000

left   ...       0.00400000     -75.64800570
centre ...       0.00500000     -77.03695441
right  ...       0.00600000     -78.41854381
new    ...       0.00700000     -79.79285105

__s__    ...       0.00100000

left   ...       0.00500000     -77.03695441
centre ...       0.00600000     -78.41854381
right  ...       0.00700000     -79.79285105
new    ...       0.00800000     -81.15985733

__s__    ...       0.00100000

 ALPHA AFTER:    8.0000000000000019E-003
 XC AFTER:   0.66788284796223873     
 SANITY CHECK:    7.9999999999935088E-003
 DIRECTION dim            1  value    6.4313038792115362E-002
 DIRECTION dim            2  value  -0.12116987959779713     
 DIRECTION dim            3  value  -0.11795303217545042     
 DIRECTION dim            4  value   -4.3378106272330769E-002
 DIRECTION dim            5  value   -2.0199803853844952E-002
 DIRECTION dim            6  value   0.10639911449824156     
 DIRECTION dim            7  value  -0.10682343157110223     
 DIRECTION dim            8  value    3.3288348910290953E-003
 DIRECTION dim            9  value    7.0355326645689956E-002
 DIRECTION dim           10  value   -3.8258112185770396E-002
 DIRECTION dim           11  value    1.6863230474669127E-002
 DIRECTION dim           12  value    6.2154323807264676E-002
 DIRECTION dim           13  value    6.4725948208021619E-002
 DIRECTION dim           14  value   -5.4850928689125306E-002
 DIRECTION dim           15  value  -0.17895971262621685     
 DIRECTION dim           16  value    2.5658097073336231E-002
 DIRECTION dim           17  value    1.0567858499941320E-002
 DIRECTION dim           18  value   0.17666199843418628     
 DIRECTION dim           19  value    6.5417120986076091E-002
 DIRECTION dim           20  value   0.11590048190893742     
 DIRECTION dim           21  value  -0.24758287733392007     
 DIRECTION dim           22  value   0.11224620172774651     
 DIRECTION dim           23  value    9.5055959733838912E-003
 DIRECTION dim           24  value   0.25333610561508663     
 DIRECTION dim           25  value   -4.8207215135796802E-002
 DIRECTION dim           26  value   -1.0826752341659994E-002
 DIRECTION dim           27  value    5.9879521524302558E-002
 DIRECTION dim           28  value    1.7757339264782056E-003
 DIRECTION dim           29  value   0.14003209397399613     
 DIRECTION dim           30  value   0.32846868008472607     
 DIRECTION dim           31  value    3.2951487789708647E-002
 DIRECTION dim           32  value    1.7119541300255623E-003
 DIRECTION dim           33  value  -0.32284413430216213     
 DIRECTION dim           34  value   -3.3642137789662331E-002
 DIRECTION dim           35  value   -7.3712162774588780E-002
 DIRECTION dim           36  value  -0.46558107855437569     
 DIRECTION dim           37  value    1.9986415832936864E-004
 DIRECTION dim           38  value   -2.0609932480313679E-002
 DIRECTION dim           39  value   0.31666568814732571     
 DIRECTION dim           40  value   -2.5547443287638850E-002
 DIRECTION dim           41  value    6.0455780935365126E-002
 DIRECTION dim           42  value   0.15638126457506277     
 DIRECTION dim           43  value   0.11177118756147691     
 DIRECTION dim           44  value   0.27494649609858768     
 DIRECTION dim           45  value  -0.17451457856485234     
 DIRECTION dim           46  value    5.5150378083076011E-002
 DIRECTION dim           47  value   -1.9098914174087041E-002
 DIRECTION dim           48  value    8.6068098837970772E-003
  Cycle:      5 Energy:       -81.159857  Gnorm:     28.298078  CPU:    0.053
 ALPHA BEFORE:    8.0000000000000019E-003
 XC BEFORE:   0.66788284796223873     
  ** Opt : line minimisation
left   ...       0.00000000     -81.15985733
centre ...       0.00100000     -82.94527149
right  ...       0.00200000     -84.71882907

left   ...       0.00000000     -81.15985733
centre ...       0.00100000     -82.94527149
right  ...       0.00200000     -84.71882907
new    ...       0.00300000     -86.48060898

__s__    ...       0.00100000

left   ...       0.00100000     -82.94527149
centre ...       0.00200000     -84.71882907
right  ...       0.00300000     -86.48060898
new    ...       0.00400000     -88.23067110

__s__    ...       0.00100000

left   ...       0.00200000     -84.71882907
centre ...       0.00300000     -86.48060898
right  ...       0.00400000     -88.23067110
new    ...       0.00500000     -89.96909471

__s__    ...       0.00100000

left   ...       0.00300000     -86.48060898
centre ...       0.00400000     -88.23067110
right  ...       0.00500000     -89.96909471
new    ...       0.00600000     -91.69595917

__s__    ...       0.00100000

left   ...       0.00400000     -88.23067110
centre ...       0.00500000     -89.96909471
right  ...       0.00600000     -91.69595917
new    ...       0.00700000     -93.41132471

__s__    ...       0.00100000

left   ...       0.00500000     -89.96909471
centre ...       0.00600000     -91.69595917
right  ...       0.00700000     -93.41132471
new    ...       0.00800000     -95.11530922

__s__    ...       0.00100000

 ALPHA AFTER:    8.0000000000000019E-003
 XC AFTER:   0.66858940585922255     
 SANITY CHECK:    8.0000000000031504E-003
 DIRECTION dim            1  value    8.8319737122942360E-002
 DIRECTION dim            2  value  -0.16375272535569929     
 DIRECTION dim            3  value  -0.15207992541141171     
 DIRECTION dim            4  value   -5.8565665102549673E-002
 DIRECTION dim            5  value   -2.6791208895392143E-002
 DIRECTION dim            6  value   0.14486063708182581     
 DIRECTION dim            7  value  -0.14425519567575029     
 DIRECTION dim            8  value    4.3472138730099351E-003
 DIRECTION dim            9  value    9.0448386192151425E-002
 DIRECTION dim           10  value   -5.2206785991723480E-002
 DIRECTION dim           11  value    2.2426242077894971E-002
 DIRECTION dim           12  value    8.1368576934392298E-002
 DIRECTION dim           13  value    7.8156573048014835E-002
 DIRECTION dim           14  value   -7.0496604856435066E-002
 DIRECTION dim           15  value  -0.21743572983534842     
 DIRECTION dim           16  value    2.9166966085181212E-002
 DIRECTION dim           17  value    8.1913372931385810E-003
 DIRECTION dim           18  value   0.22416039531268414     
 DIRECTION dim           19  value    9.1078966579313789E-002
 DIRECTION dim           20  value   0.15924139882376978     
 DIRECTION dim           21  value  -0.31778673302113508     
 DIRECTION dim           22  value   0.15171029727774293     
 DIRECTION dim           23  value    1.1906282746728034E-002
 DIRECTION dim           24  value   0.33643467386345138     
 DIRECTION dim           25  value   -6.9805622430964387E-002
 DIRECTION dim           26  value   -1.6442613526744695E-002
 DIRECTION dim           27  value    7.2667807771443632E-002
 DIRECTION dim           28  value    4.7029115092478146E-003
 DIRECTION dim           29  value   0.17814253497455473     
 DIRECTION dim           30  value   0.42109959228460436     
 DIRECTION dim           31  value    4.9978253412729774E-002
 DIRECTION dim           32  value    8.3600128894244854E-003
 DIRECTION dim           33  value  -0.42654931278769165     
 DIRECTION dim           34  value   -4.6253284422291860E-002
 DIRECTION dim           35  value   -9.6877081788735928E-002
 DIRECTION dim           36  value  -0.62752629625564005     
 DIRECTION dim           37  value    1.4676445474527432E-003
 DIRECTION dim           38  value   -2.2381837612123839E-002
 DIRECTION dim           39  value   0.40511192696327952     
 DIRECTION dim           40  value   -3.3574370303852803E-002
 DIRECTION dim           41  value    7.9148944766596105E-002
 DIRECTION dim           42  value   0.21239846905327436     
 DIRECTION dim           43  value   0.13978656504898163     
 DIRECTION dim           44  value   0.36200309924972152     
 DIRECTION dim           45  value  -0.23459248260623758     
 DIRECTION dim           46  value    7.3471058554477095E-002
 DIRECTION dim           47  value   -2.5972957435345556E-002
 DIRECTION dim           48  value    1.1237785505825921E-002
  Cycle:      6 Energy:       -95.115309  Gnorm:     26.849708  CPU:    0.059
 ALPHA BEFORE:    8.0000000000000019E-003
 XC BEFORE:   0.66858940585922255     
  ** Opt : line minimisation
left   ...       0.00000000     -95.11530922
centre ...       0.00100000     -96.68950644
right  ...       0.00200000     -98.25447068

left   ...       0.00000000     -95.11530922
centre ...       0.00100000     -96.68950644
right  ...       0.00200000     -98.25447068
new    ...       0.00300000     -99.81029462

__s__    ...       0.00100000

left   ...       0.00100000     -96.68950644
centre ...       0.00200000     -98.25447068
right  ...       0.00300000     -99.81029462
new    ...       0.00400000    -101.35716971

__s__    ...       0.00100000

left   ...       0.00200000     -98.25447068
centre ...       0.00300000     -99.81029462
right  ...       0.00400000    -101.35716971
new    ...       0.00500000    -102.89483777

__s__    ...       0.00100000

left   ...       0.00300000     -99.81029462
centre ...       0.00400000    -101.35716971
right  ...       0.00500000    -102.89483777
new    ...       0.00600000    -104.42350847

__s__    ...       0.00100000

left   ...       0.00400000    -101.35716971
centre ...       0.00500000    -102.89483777
right  ...       0.00600000    -104.42350847
new    ...       0.00700000    -105.94341073

__s__    ...       0.00100000

left   ...       0.00500000    -102.89483777
centre ...       0.00600000    -104.42350847
right  ...       0.00700000    -105.94341073
new    ...       0.00800000    -107.45424868

__s__    ...       0.00100000

 ALPHA AFTER:    8.0000000000000019E-003
 XC AFTER:   0.66928208308145809     
 SANITY CHECK:    8.0000000000023594E-003
 DIRECTION dim            1  value    8.6584652779416738E-002
 DIRECTION dim            2  value  -0.15722730811188221     
 DIRECTION dim            3  value  -0.13757762451597985     
 DIRECTION dim            4  value   -5.6297558983440445E-002
 DIRECTION dim            5  value   -2.5134834265164965E-002
 DIRECTION dim            6  value   0.14094776884718305     
 DIRECTION dim            7  value  -0.13865832326040978     
 DIRECTION dim            8  value    3.9955130028249851E-003
 DIRECTION dim            9  value    8.0934897013803131E-002
 DIRECTION dim           10  value   -5.0894795503077739E-002
 DIRECTION dim           11  value    2.1113405276146333E-002
 DIRECTION dim           12  value    7.4830287932820233E-002
 DIRECTION dim           13  value    6.5673843567438800E-002
 DIRECTION dim           14  value   -6.3598811096723135E-002
 DIRECTION dim           15  value  -0.18129219237186120     
 DIRECTION dim           16  value    2.1864680019769673E-002
 DIRECTION dim           17  value    8.8601864189209452E-004
 DIRECTION dim           18  value   0.19794167272648425     
 DIRECTION dim           19  value    9.0830953761683819E-002
 DIRECTION dim           20  value   0.15600745887463449     
 DIRECTION dim           21  value  -0.28606611411003341     
 DIRECTION dim           22  value   0.14590616746226776     
 DIRECTION dim           23  value    1.0323398400873802E-002
 DIRECTION dim           24  value   0.31704311947359265     
 DIRECTION dim           25  value   -7.2548175962218506E-002
 DIRECTION dim           26  value   -1.8034610313831839E-002
 DIRECTION dim           27  value    6.1169359549534480E-002
 DIRECTION dim           28  value    6.6296000146018191E-003
 DIRECTION dim           29  value   0.15909681139552251     
 DIRECTION dim           30  value   0.37808203056292761     
 DIRECTION dim           31  value    5.4224524113947521E-002
 DIRECTION dim           32  value    1.4971820029148252E-002
 DIRECTION dim           33  value  -0.39829653615180377     
 DIRECTION dim           34  value   -4.5548714242902542E-002
 DIRECTION dim           35  value   -8.9821335388441101E-002
 DIRECTION dim           36  value  -0.60160262529167463     
 DIRECTION dim           37  value    2.4516150129861415E-003
 DIRECTION dim           38  value   -1.5895760174286382E-002
 DIRECTION dim           39  value   0.36296069890138383     
 DIRECTION dim           40  value   -3.1119745302073988E-002
 DIRECTION dim           41  value    7.3033367356010806E-002
 DIRECTION dim           42  value   0.20514340018086377     
 DIRECTION dim           43  value   0.12084811095732600     
 DIRECTION dim           44  value   0.33669308257808933     
 DIRECTION dim           45  value  -0.22432521269083727     
 DIRECTION dim           46  value    6.9269308795841464E-002
 DIRECTION dim           47  value   -2.5438665149775889E-002
 DIRECTION dim           48  value    1.0388628475921006E-002
  Cycle:      7 Energy:      -107.454249  Gnorm:     25.634239  CPU:    0.065
 ALPHA BEFORE:    8.0000000000000019E-003
 XC BEFORE:   0.66928208308145809     
  ** Opt : line minimisation
left   ...       0.00000000    -107.45424868
centre ...       0.00100000    -108.89908767
right  ...       0.00200000    -110.33615974

left   ...       0.00000000    -107.45424868
centre ...       0.00100000    -108.89908767
right  ...       0.00200000    -110.33615974
new    ...       0.00300000    -111.76548652

__s__    ...       0.00100000

left   ...       0.00100000    -108.89908767
centre ...       0.00200000    -110.33615974
right  ...       0.00300000    -111.76548652
new    ...       0.00400000    -113.18714712

__s__    ...       0.00100000

left   ...       0.00200000    -110.33615974
centre ...       0.00300000    -111.76548652
right  ...       0.00400000    -113.18714712
new    ...       0.00500000    -114.60114363

__s__    ...       0.00100000

left   ...       0.00300000    -111.76548652
centre ...       0.00400000    -113.18714712
right  ...       0.00500000    -114.60114363
new    ...       0.00600000    -116.00772980

__s__    ...       0.00100000

left   ...       0.00400000    -113.18714712
centre ...       0.00500000    -114.60114363
right  ...       0.00600000    -116.00772980
new    ...       0.00700000    -117.40657704

__s__    ...       0.00100000

left   ...       0.00500000    -114.60114363
centre ...       0.00600000    -116.00772980
right  ...       0.00700000    -117.40657704
new    ...       0.00800000    -118.79789976

__s__    ...       0.00100000

 ALPHA AFTER:    8.0000000000000019E-003
 XC AFTER:   0.66997682799952951     
 SANITY CHECK:    7.9999999999960259E-003
 DIRECTION dim            1  value    8.6843114758970830E-002
 DIRECTION dim            2  value  -0.15483966148640221     
 DIRECTION dim            3  value  -0.12895560093584985     
 DIRECTION dim            4  value   -5.5647533575267923E-002
 DIRECTION dim            5  value   -2.4300003087414642E-002
 DIRECTION dim            6  value   0.14104837362517847     
 DIRECTION dim            7  value  -0.13701195201576635     
 DIRECTION dim            8  value    3.7912522982513435E-003
 DIRECTION dim            9  value    7.4406446126581746E-002
 DIRECTION dim           10  value   -5.0942208729442121E-002
 DIRECTION dim           11  value    2.0476024376948395E-002
 DIRECTION dim           12  value    7.0828873167101083E-002
 DIRECTION dim           13  value    5.8491012494186964E-002
 DIRECTION dim           14  value   -5.9583465141329048E-002
 DIRECTION dim           15  value  -0.15768366534062611     
 DIRECTION dim           16  value    1.6904395811789995E-002
 DIRECTION dim           17  value   -4.5901046205703419E-003
 DIRECTION dim           18  value   0.18116987180049762     
 DIRECTION dim           19  value    9.2349990451232822E-002
 DIRECTION dim           20  value   0.15611510401196038     
 DIRECTION dim           21  value  -0.26735847601557572     
 DIRECTION dim           22  value   0.14417046573892248     
 DIRECTION dim           23  value    9.2652641989782233E-003
 DIRECTION dim           24  value   0.30861694456172700     
 DIRECTION dim           25  value   -7.5816932621115718E-002
 DIRECTION dim           26  value   -1.9623895740790626E-002
 DIRECTION dim           27  value    5.4615622054619416E-002
 DIRECTION dim           28  value    7.7540135608218106E-003
 DIRECTION dim           29  value   0.14812247906821985     
 DIRECTION dim           30  value   0.35207458959767179     
 DIRECTION dim           31  value    5.8303527029651810E-002
 DIRECTION dim           32  value    2.0202890207474525E-002
 DIRECTION dim           33  value  -0.38369136470058179     
 DIRECTION dim           34  value   -4.6019706659193568E-002
 DIRECTION dim           35  value   -8.5922069428902237E-002
 DIRECTION dim           36  value  -0.59308801363869912     
 DIRECTION dim           37  value    2.9871980667810927E-003
 DIRECTION dim           38  value   -1.1817141878158728E-002
 DIRECTION dim           39  value   0.33747376057417622     
 DIRECTION dim           40  value   -2.9756583770663862E-002
 DIRECTION dim           41  value    6.9591107312950373E-002
 DIRECTION dim           42  value   0.20296877045089820     
 DIRECTION dim           43  value   0.10806318983226502     
 DIRECTION dim           44  value   0.32321187142842639     
 DIRECTION dim           45  value  -0.22071174505047700     
 DIRECTION dim           46  value    6.7223404364632339E-002
 DIRECTION dim           47  value   -2.5773672970683260E-002
 DIRECTION dim           48  value    9.9559250809448125E-003
  Cycle:      8 Energy:      -118.797900  Gnorm:     24.565210  CPU:    0.071
 ALPHA BEFORE:    8.0000000000000019E-003
 XC BEFORE:   0.66997682799952951     
  ** Opt : line minimisation
left   ...       0.00000000    -118.79789976
centre ...       0.00100000    -120.12907668
right  ...       0.00200000    -121.45364463

left   ...       0.00000000    -118.79789976
centre ...       0.00100000    -120.12907668
right  ...       0.00200000    -121.45364463
new    ...       0.00300000    -122.77163379

__s__    ...       0.00100000

left   ...       0.00100000    -120.12907668
centre ...       0.00200000    -121.45364463
right  ...       0.00300000    -122.77163379
new    ...       0.00400000    -124.08307418

__s__    ...       0.00100000

left   ...       0.00200000    -121.45364463
centre ...       0.00300000    -122.77163379
right  ...       0.00400000    -124.08307418
new    ...       0.00500000    -125.38799563

__s__    ...       0.00100000

left   ...       0.00300000    -122.77163379
centre ...       0.00400000    -124.08307418
right  ...       0.00500000    -125.38799563
new    ...       0.00600000    -126.68642777

__s__    ...       0.00100000

left   ...       0.00400000    -124.08307418
centre ...       0.00500000    -125.38799563
right  ...       0.00600000    -126.68642777
new    ...       0.00700000    -127.97838082

__s__    ...       0.00100000

left   ...       0.00500000    -125.38799563
centre ...       0.00600000    -126.68642777
right  ...       0.00700000    -127.97838082
new    ...       0.00800000    -129.26409780

__s__    ...       0.00100000

 ALPHA AFTER:    8.0000000000000019E-003
 XC AFTER:   0.67066986844209620     
 SANITY CHECK:    8.0000000000043266E-003
 DIRECTION dim            1  value    8.6630055320788601E-002
 DIRECTION dim            2  value  -0.15177903438662646     
 DIRECTION dim            3  value  -0.12082619998923265     
 DIRECTION dim            4  value   -5.4855338827861755E-002
 DIRECTION dim            5  value   -2.3442620191241187E-002
 DIRECTION dim            6  value   0.14085404700688847     
 DIRECTION dim            7  value  -0.13499033038970923     
 DIRECTION dim            8  value    3.5924650599719848E-003
 DIRECTION dim            9  value    6.7726907172670478E-002
 DIRECTION dim           10  value   -5.0831165851865159E-002
 DIRECTION dim           11  value    1.9811092903591274E-002
 DIRECTION dim           12  value    6.6675603974333725E-002
 DIRECTION dim           13  value    5.2804596414956682E-002
 DIRECTION dim           14  value   -5.5909509660577263E-002
 DIRECTION dim           15  value  -0.13708746647222789     
 DIRECTION dim           16  value    1.2735566421365059E-002
 DIRECTION dim           17  value   -9.2043172682378122E-003
 DIRECTION dim           18  value   0.16566396059034691     
 DIRECTION dim           19  value    9.3188939018603117E-002
 DIRECTION dim           20  value   0.15513774164945918     
 DIRECTION dim           21  value  -0.25025335113800518     
 DIRECTION dim           22  value   0.14198587289581621     
 DIRECTION dim           23  value    8.2827455376291055E-003
 DIRECTION dim           24  value   0.30033819097383968     
 DIRECTION dim           25  value   -7.8060133086102865E-002
 DIRECTION dim           26  value   -2.0879282364531737E-002
 DIRECTION dim           27  value    4.9637169684489085E-002
 DIRECTION dim           28  value    8.3807065212660823E-003
 DIRECTION dim           29  value   0.13840787292584431     
 DIRECTION dim           30  value   0.32792663714003617     
 DIRECTION dim           31  value    6.1397268173185915E-002
 DIRECTION dim           32  value    2.4521350537227822E-002
 DIRECTION dim           33  value  -0.36899991381673214     
 DIRECTION dim           34  value   -4.6352305709756104E-002
 DIRECTION dim           35  value   -8.2043492459483114E-002
 DIRECTION dim           36  value  -0.58296177541276206     
 DIRECTION dim           37  value    3.2886384383061839E-003
 DIRECTION dim           38  value   -8.6317851622440718E-003
 DIRECTION dim           39  value   0.31387773443249650     
 DIRECTION dim           40  value   -2.8400268474826934E-002
 DIRECTION dim           41  value    6.6231299794756116E-002
 DIRECTION dim           42  value   0.19974065011972819     
 DIRECTION dim           43  value    9.6039272945813325E-002
 DIRECTION dim           44  value   0.30970963245760802     
 DIRECTION dim           45  value  -0.21653427800116296     
 DIRECTION dim           46  value    6.5062837233054865E-002
 DIRECTION dim           47  value   -2.6161493280251760E-002
 DIRECTION dim           48  value    9.5494799982748287E-003
  Cycle:      9 Energy:      -129.264098  Gnorm:     23.615907  CPU:    0.078
 ALPHA BEFORE:    8.0000000000000019E-003
 XC BEFORE:   0.67066986844209620     
  ** Opt : line minimisation
left   ...       0.00000000    -129.26409780
centre ...       0.00100000    -130.54492760
right  ...       0.00200000    -131.81942057

left   ...       0.00000000    -129.26409780
centre ...       0.00100000    -130.54492760
right  ...       0.00200000    -131.81942057
new    ...       0.00300000    -133.08795189

__s__    ...       0.00100000

left   ...       0.00100000    -130.54492760
centre ...       0.00200000    -131.81942057
right  ...       0.00300000    -133.08795189
new    ...       0.00400000    -134.35054626

__s__    ...       0.00100000

left   ...       0.00200000    -131.81942057
centre ...       0.00300000    -133.08795189
right  ...       0.00400000    -134.35054626
new    ...       0.00500000    -135.60687793

__s__    ...       0.00100000

left   ...       0.00300000    -133.08795189
centre ...       0.00400000    -134.35054626
right  ...       0.00500000    -135.60687793
new    ...       0.00600000    -136.85714616

__s__    ...       0.00100000

left   ...       0.00400000    -134.35054626
centre ...       0.00500000    -135.60687793
right  ...       0.00600000    -136.85714616
new    ...       0.00700000    -138.10120026

__s__    ...       0.00100000

left   ...       0.00500000    -135.60687793
centre ...       0.00600000    -136.85714616
right  ...       0.00700000    -138.10120026
new    ...       0.00800000    -139.33941398

__s__    ...       0.00100000

 ALPHA AFTER:    8.0000000000000019E-003
 XC AFTER:   0.67138527454245356     
 SANITY CHECK:    8.0000000000012682E-003
 DIRECTION dim            1  value    8.9425762544656201E-002
 DIRECTION dim            2  value  -0.15417057701475567     
 DIRECTION dim            3  value  -0.11796771807950197     
 DIRECTION dim            4  value   -5.6107301194493378E-002
 DIRECTION dim            5  value   -2.3507087775382265E-002
 DIRECTION dim            6  value   0.14593081603262992     
 DIRECTION dim            7  value  -0.13798256291323954     
 DIRECTION dim            8  value    3.5447047397715700E-003
 DIRECTION dim            9  value    6.3650210523575793E-002
 DIRECTION dim           10  value   -5.2582234237477078E-002
 DIRECTION dim           11  value    1.9915233365882971E-002
 DIRECTION dim           12  value    6.5060851800624764E-002
 DIRECTION dim           13  value    5.0368724195194822E-002
 DIRECTION dim           14  value   -5.4772642222913025E-002
 DIRECTION dim           15  value  -0.12460507590937682     
 DIRECTION dim           16  value    9.7712340175041528E-003
 DIRECTION dim           17  value   -1.3403147995069517E-002
 DIRECTION dim           18  value   0.15806524078176173     
 DIRECTION dim           19  value    9.7070260585905191E-002
 DIRECTION dim           20  value   0.15932806891328458     
 DIRECTION dim           21  value  -0.24458631072246828     
 DIRECTION dim           22  value   0.14503714343623722     
 DIRECTION dim           23  value    7.7066328289797171E-003
 DIRECTION dim           24  value   0.30407056474116040     
 DIRECTION dim           25  value   -8.2435930493100634E-002
 DIRECTION dim           26  value   -2.2619144639217662E-002
 DIRECTION dim           27  value    4.7948385453803047E-002
 DIRECTION dim           28  value    8.9842348773216309E-003
 DIRECTION dim           29  value   0.13524516733339073     
 DIRECTION dim           30  value   0.31859787509164134     
 DIRECTION dim           31  value    6.6049675903701283E-002
 DIRECTION dim           32  value    2.8986621825796529E-002
 DIRECTION dim           33  value  -0.36898983971314953     
 DIRECTION dim           34  value   -4.8384937315512098E-002
 DIRECTION dim           35  value   -8.1481737152003075E-002
 DIRECTION dim           36  value  -0.59448055244698172     
 DIRECTION dim           37  value    3.5731315132578158E-003
 DIRECTION dim           38  value   -6.4844497015211448E-003
 DIRECTION dim           39  value   0.30450992391230081     
 DIRECTION dim           40  value   -2.8194082920753982E-002
 DIRECTION dim           41  value    6.5613756557680508E-002
 DIRECTION dim           42  value   0.20351983488795444     
 DIRECTION dim           43  value    8.8594577721211709E-002
 DIRECTION dim           44  value   0.30854188260982590     
 DIRECTION dim           45  value  -0.22039880356040756     
 DIRECTION dim           46  value    6.5415086658985683E-002
 DIRECTION dim           47  value   -2.7595776189728995E-002
 DIRECTION dim           48  value    9.5380515563942576E-003
  Cycle:     10 Energy:      -139.339414  Gnorm:     22.730163  CPU:    0.084
 ALPHA BEFORE:    8.0000000000000019E-003
 XC BEFORE:   0.67138527454245356     
  ** Opt : line minimisation
left   ...       0.00000000    -139.33941398
centre ...       0.00100000    -140.48226413
right  ...       0.00200000    -141.61999527

left   ...       0.00000000    -139.33941398
centre ...       0.00100000    -140.48226413
right  ...       0.00200000    -141.61999527
new    ...       0.00300000    -142.75262308

__s__    ...       0.00100000

left   ...       0.00100000    -140.48226413
centre ...       0.00200000    -141.61999527
right  ...       0.00300000    -142.75262308
new    ...       0.00400000    -143.88049366

__s__    ...       0.00100000

left   ...       0.00200000    -141.61999527
centre ...       0.00300000    -142.75262308
right  ...       0.00400000    -143.88049366
new    ...       0.00500000    -145.00348580

__s__    ...       0.00100000

left   ...       0.00300000    -142.75262308
centre ...       0.00400000    -143.88049366
right  ...       0.00500000    -145.00348580
new    ...       0.00600000    -146.12159549

__s__    ...       0.00100000

left   ...       0.00400000    -143.88049366
centre ...       0.00500000    -145.00348580
right  ...       0.00600000    -146.12159549
new    ...       0.00700000    -147.23483783

__s__    ...       0.00100000

left   ...       0.00500000    -145.00348580
centre ...       0.00600000    -146.12159549
right  ...       0.00700000    -147.23483783
new    ...       0.00800000    -148.34322771

__s__    ...       0.00100000

 ALPHA AFTER:    8.0000000000000019E-003
 XC AFTER:   0.67206880809245018     
 SANITY CHECK:    7.9999999999997972E-003
 DIRECTION dim            1  value    8.5441693749579384E-002
 DIRECTION dim            2  value  -0.14475895395684207     
 DIRECTION dim            3  value  -0.10629609078583617     
 DIRECTION dim            4  value   -5.3159883819745894E-002
 DIRECTION dim            5  value   -2.1809508144245270E-002
 DIRECTION dim            6  value   0.14028062570749669     
 DIRECTION dim            7  value  -0.13062949130893664     
 DIRECTION dim            8  value    3.2353718333150761E-003
 DIRECTION dim            9  value    5.4231308498912771E-002
 DIRECTION dim           10  value   -5.0437227886764371E-002
 DIRECTION dim           11  value    1.8520669250513839E-002
 DIRECTION dim           12  value    5.8258758348652434E-002
 DIRECTION dim           13  value    4.4732920397398929E-002
 DIRECTION dim           14  value   -4.9650690822046491E-002
 DIRECTION dim           15  value  -0.10352968688475657     
 DIRECTION dim           16  value    6.3195365959146012E-003
 DIRECTION dim           17  value   -1.6409051701551453E-002
 DIRECTION dim           18  value   0.13892420380185044     
 DIRECTION dim           19  value    9.3503661980791422E-002
 DIRECTION dim           20  value   0.15114300488576277     
 DIRECTION dim           21  value  -0.22114253046957955     
 DIRECTION dim           22  value   0.13717682463805331     
 DIRECTION dim           23  value    6.5575151062238794E-003
 DIRECTION dim           24  value   0.28536328095846381     
 DIRECTION dim           25  value   -8.0259759584374882E-002
 DIRECTION dim           26  value   -2.2533041346875185E-002
 DIRECTION dim           27  value    4.3500909522621638E-002
 DIRECTION dim           28  value    8.7315974486338339E-003
 DIRECTION dim           29  value   0.12238291301066322     
 DIRECTION dim           30  value   0.28577659930775656     
 DIRECTION dim           31  value    6.5518487755338028E-002
 DIRECTION dim           32  value    3.1075616333035346E-002
 DIRECTION dim           33  value  -0.34124551247528551     
 DIRECTION dim           34  value   -4.6885025193668141E-002
 DIRECTION dim           35  value   -7.4801379963042564E-002
 DIRECTION dim           36  value  -0.56119021085774246     
 DIRECTION dim           37  value    3.5349658854228910E-003
 DIRECTION dim           38  value   -4.1343874937238003E-003
 DIRECTION dim           39  value   0.27264534096980370     
 DIRECTION dim           40  value   -2.5872777746582479E-002
 DIRECTION dim           41  value    6.0113129079009051E-002
 DIRECTION dim           42  value   0.19163173290064026     
 DIRECTION dim           43  value    7.4304576193920127E-002
 DIRECTION dim           44  value   0.28405851046684377     
 DIRECTION dim           45  value  -0.20759932242469781     
 DIRECTION dim           46  value    6.0840082688049940E-002
 DIRECTION dim           47  value   -2.7107420605200726E-002
 DIRECTION dim           48  value    8.8171116068243120E-003
  Cycle:     11 Energy:      -148.343228  Gnorm:     21.959621  CPU:    0.090
 ALPHA BEFORE:    8.0000000000000019E-003
 XC BEFORE:   0.67206880809245018     
  ** Opt : line minimisation
left   ...       0.00000000    -148.34322771
centre ...       0.00100000    -149.41526709
right  ...       0.00200000    -150.48289648

left   ...       0.00000000    -148.34322771
centre ...       0.00100000    -149.41526709
right  ...       0.00200000    -150.48289648
new    ...       0.00300000    -151.54595211

__s__    ...       0.00100000

left   ...       0.00100000    -149.41526709
centre ...       0.00200000    -150.48289648
right  ...       0.00300000    -151.54595211
new    ...       0.00400000    -152.60461981

__s__    ...       0.00100000

left   ...       0.00200000    -150.48289648
centre ...       0.00300000    -151.54595211
right  ...       0.00400000    -152.60461981
new    ...       0.00500000    -153.65891060

__s__    ...       0.00100000

left   ...       0.00300000    -151.54595211
centre ...       0.00400000    -152.60461981
right  ...       0.00500000    -153.65891060
new    ...       0.00600000    -154.70883534

__s__    ...       0.00100000

left   ...       0.00400000    -152.60461981
centre ...       0.00500000    -153.65891060
right  ...       0.00600000    -154.70883534
new    ...       0.00700000    -155.75440476

__s__    ...       0.00100000

left   ...       0.00500000    -153.65891060
centre ...       0.00600000    -154.70883534
right  ...       0.00700000    -155.75440476
new    ...       0.00800000    -156.79545451

__s__    ...       0.00100000

 ALPHA AFTER:    8.0000000000000019E-003
 XC AFTER:   0.67274889977973817     
 SANITY CHECK:    8.0000000000017887E-003
 DIRECTION dim            1  value    8.5011460910980760E-002
 DIRECTION dim            2  value  -0.14182335236392277     
 DIRECTION dim            3  value  -0.10057722083031762     
 DIRECTION dim            4  value   -5.2567214172951009E-002
 DIRECTION dim            5  value   -2.1187991309308193E-002
 DIRECTION dim            6  value   0.14061166078316845     
 DIRECTION dim            7  value  -0.12907957054406416     
 DIRECTION dim            8  value    3.1017342267008843E-003
 DIRECTION dim            9  value    4.7973197943470061E-002
 DIRECTION dim           10  value   -5.0429239150695700E-002
 DIRECTION dim           11  value    1.8023041225700424E-002
 DIRECTION dim           12  value    5.4482975881155790E-002
 DIRECTION dim           13  value    4.2200420869389112E-002
 DIRECTION dim           14  value   -4.7348786108750013E-002
 DIRECTION dim           15  value   -9.0901415997546586E-002
 DIRECTION dim           16  value    4.0117579147088116E-003
 DIRECTION dim           17  value   -1.9153836635872348E-002
 DIRECTION dim           18  value   0.12871173675726416     
 DIRECTION dim           19  value    9.3558003298349388E-002
 DIRECTION dim           20  value   0.14918591673706166     
 DIRECTION dim           21  value  -0.21035884429468840     
 DIRECTION dim           22  value   0.13541008849536737     
 DIRECTION dim           23  value    5.8690643757422179E-003
 DIRECTION dim           24  value   0.28020538703310827     
 DIRECTION dim           25  value   -8.0782289802186033E-002
 DIRECTION dim           26  value   -2.3055310829880844E-002
 DIRECTION dim           27  value    4.2162665101699109E-002
 DIRECTION dim           28  value    8.6801548203804119E-003
 DIRECTION dim           29  value   0.11659602140120533     
 DIRECTION dim           30  value   0.26958190920075042     
 DIRECTION dim           31  value    6.7029708421967246E-002
 DIRECTION dim           32  value    3.3560464357160535E-002
 DIRECTION dim           33  value  -0.33042569515995179     
 DIRECTION dim           34  value   -4.7321231233481954E-002
 DIRECTION dim           35  value   -7.1958922135529305E-002
 DIRECTION dim           36  value  -0.55297266455810312     
 DIRECTION dim           37  value    3.5947700595464808E-003
 DIRECTION dim           38  value   -2.6231831755653885E-003
 DIRECTION dim           39  value   0.25669000563777594     
 DIRECTION dim           40  value   -2.4885726640224065E-002
 DIRECTION dim           41  value    5.7768850974345511E-002
 DIRECTION dim           42  value   0.18809620028279839     
 DIRECTION dim           43  value    6.5253011345134976E-002
 DIRECTION dim           44  value   0.27381483912311039     
 DIRECTION dim           45  value  -0.20410403857178708     
 DIRECTION dim           46  value    5.9206387934353150E-002
 DIRECTION dim           47  value   -2.7727587759910445E-002
 DIRECTION dim           48  value    8.5321158624025398E-003
  Cycle:     12 Energy:      -156.795455  Gnorm:     21.249880  CPU:    0.096
 ALPHA BEFORE:    8.0000000000000019E-003
 XC BEFORE:   0.67274889977973817     
  ** Opt : line minimisation
left   ...       0.00000000    -156.79545451
centre ...       0.00100000    -157.80059358
right  ...       0.00200000    -158.80180573

left   ...       0.00000000    -156.79545451
centre ...       0.00100000    -157.80059358
right  ...       0.00200000    -158.80180573
new    ...       0.00300000    -159.79906026

__s__    ...       0.00100000

left   ...       0.00100000    -157.80059358
centre ...       0.00200000    -158.80180573
right  ...       0.00300000    -159.79906026
new    ...       0.00400000    -160.79238401

__s__    ...       0.00100000

left   ...       0.00200000    -158.80180573
centre ...       0.00300000    -159.79906026
right  ...       0.00400000    -160.79238401
new    ...       0.00500000    -161.78176528

__s__    ...       0.00100000

left   ...       0.00300000    -159.79906026
centre ...       0.00400000    -160.79238401
right  ...       0.00500000    -161.78176528
new    ...       0.00600000    -162.76724998

__s__    ...       0.00100000

left   ...       0.00400000    -160.79238401
centre ...       0.00500000    -161.78176528
right  ...       0.00600000    -162.76724998
new    ...       0.00700000    -163.74882611

__s__    ...       0.00100000

left   ...       0.00500000    -161.78176528
centre ...       0.00600000    -162.76724998
right  ...       0.00700000    -163.74882611
new    ...       0.00800000    -164.72648167

__s__    ...       0.00100000

 ALPHA AFTER:    8.0000000000000019E-003
 XC AFTER:   0.67342271788235841     
 SANITY CHECK:    8.0000000000006229E-003
 DIRECTION dim            1  value    8.4227262827523242E-002
 DIRECTION dim            2  value  -0.13839886224313080     
 DIRECTION dim            3  value   -9.4934883361120923E-002
 DIRECTION dim            4  value   -5.1814202994863799E-002
 DIRECTION dim            5  value   -2.0546623026028714E-002
 DIRECTION dim            6  value   0.14050386526079078     
 DIRECTION dim            7  value  -0.12714182787623429     
 DIRECTION dim            8  value    2.9742444432074825E-003
 DIRECTION dim            9  value    4.1517582484711275E-002
 DIRECTION dim           10  value   -5.0255785041077361E-002
 DIRECTION dim           11  value    1.7497075868596293E-002
 DIRECTION dim           12  value    5.0528488745509616E-002
 DIRECTION dim           13  value    4.0035835213618545E-002
 DIRECTION dim           14  value   -4.5146875143298446E-002
 DIRECTION dim           15  value   -7.9423174777372096E-002
 DIRECTION dim           16  value    2.0455763924746451E-003
 DIRECTION dim           17  value   -2.1467524093567850E-002
 DIRECTION dim           18  value   0.11917360574251550     
 DIRECTION dim           19  value    9.3086321777722747E-002
 DIRECTION dim           20  value   0.14644917062610813     
 DIRECTION dim           21  value  -0.20003647943296216     
 DIRECTION dim           22  value   0.13322637720262814     
 DIRECTION dim           23  value    5.2241177804118319E-003
 DIRECTION dim           24  value   0.27457173041475441     
 DIRECTION dim           25  value   -8.0629041654822584E-002
 DIRECTION dim           26  value   -2.3311131359422792E-002
 DIRECTION dim           27  value    4.1324058520310618E-002
 DIRECTION dim           28  value    8.5115918479310403E-003
 DIRECTION dim           29  value   0.11110474673657644     
 DIRECTION dim           30  value   0.25397591893336507     
 DIRECTION dim           31  value    6.7986052812819553E-002
 DIRECTION dim           32  value    3.5565891696674387E-002
 DIRECTION dim           33  value  -0.31913375345878064     
 DIRECTION dim           34  value   -4.7612954562609180E-002
 DIRECTION dim           35  value   -6.9078374437917978E-002
 DIRECTION dim           36  value  -0.54296803264252513     
 DIRECTION dim           37  value    3.6344279799343884E-003
 DIRECTION dim           38  value   -1.3699525779375863E-003
 DIRECTION dim           39  value   0.24127194217127632     
 DIRECTION dim           40  value   -2.3891155450151916E-002
 DIRECTION dim           41  value    5.5442260515102586E-002
 DIRECTION dim           42  value   0.18378614807549659     
 DIRECTION dim           43  value    5.6534808723278464E-002
 DIRECTION dim           44  value   0.26319204082977415     
 DIRECTION dim           45  value  -0.19993778216360042     
 DIRECTION dim           46  value    5.7479450096508983E-002
 DIRECTION dim           47  value   -2.8281724741598166E-002
 DIRECTION dim           48  value    8.2319184749388690E-003
  Cycle:     13 Energy:      -164.726482  Gnorm:     20.592843  CPU:    0.103
 ALPHA BEFORE:    8.0000000000000019E-003
 XC BEFORE:   0.67342271788235841     
  ** Opt : line minimisation
left   ...       0.00000000    -164.72648167
centre ...       0.00100000    -165.67172889
right  ...       0.00200000    -166.61341182

left   ...       0.00000000    -164.72648167
centre ...       0.00100000    -165.67172889
right  ...       0.00200000    -166.61341182
new    ...       0.00300000    -167.55153553

__s__    ...       0.00100000

left   ...       0.00100000    -165.67172889
centre ...       0.00200000    -166.61341182
right  ...       0.00300000    -167.55153553
new    ...       0.00400000    -168.48610498

__s__    ...       0.00100000

left   ...       0.00200000    -166.61341182
centre ...       0.00300000    -167.55153553
right  ...       0.00400000    -168.48610498
new    ...       0.00500000    -169.41712503

__s__    ...       0.00100000

left   ...       0.00300000    -167.55153553
centre ...       0.00400000    -168.48610498
right  ...       0.00500000    -169.41712503
new    ...       0.00600000    -170.34460046

__s__    ...       0.00100000

left   ...       0.00400000    -168.48610498
centre ...       0.00500000    -169.41712503
right  ...       0.00600000    -170.34460046
new    ...       0.00700000    -171.26836095

__s__    ...       0.00100000

left   ...       0.00500000    -169.41712503
centre ...       0.00600000    -170.34460046
right  ...       0.00700000    -171.26836095
new    ...       0.00800000    -172.18876122

__s__    ...       0.00100000

 ALPHA AFTER:    8.0000000000000019E-003
 XC AFTER:   0.67408985959111156     
 SANITY CHECK:    7.9999999999979653E-003
 DIRECTION dim            1  value    8.3392713594164891E-002
 DIRECTION dim            2  value  -0.13501294283721335     
 DIRECTION dim            3  value   -8.9707801145109872E-002
 DIRECTION dim            4  value   -5.1076699626694214E-002
 DIRECTION dim            5  value   -1.9964389596851331E-002
 DIRECTION dim            6  value   0.14039361495856223     
 DIRECTION dim            7  value  -0.12525800560798148     
 DIRECTION dim            8  value    2.8644836236051035E-003
 DIRECTION dim            9  value    3.5086925516940315E-002
 DIRECTION dim           10  value   -5.0083011904842920E-002
 DIRECTION dim           11  value    1.7007582134538443E-002
 DIRECTION dim           12  value    4.6613556843744026E-002
 DIRECTION dim           13  value    3.8292350715243305E-002
 DIRECTION dim           14  value   -4.3193738312323815E-002
 DIRECTION dim           15  value   -6.9299680172825728E-002
 DIRECTION dim           16  value    4.0005127402822986E-004
 DIRECTION dim           17  value   -2.3441087391601233E-002
 DIRECTION dim           18  value   0.11073570067846181     
 DIRECTION dim           19  value    9.2432927757270522E-002
 DIRECTION dim           20  value   0.14350437339561881     
 DIRECTION dim           21  value  -0.19081299885015351     
 DIRECTION dim           22  value   0.13109595991356524     
 DIRECTION dim           23  value    4.6442835456489253E-003
 DIRECTION dim           24  value   0.26935563811324376     
 DIRECTION dim           25  value   -8.0125736932647892E-002
 DIRECTION dim           26  value   -2.3393148537399201E-002
 DIRECTION dim           27  value    4.0991348154411127E-002
 DIRECTION dim           28  value    8.2872388527228356E-003
 DIRECTION dim           29  value   0.10624682374202227     
 DIRECTION dim           30  value   0.23984678136370455     
 DIRECTION dim           31  value    6.8646602343911178E-002
 DIRECTION dim           32  value    3.7234728501984983E-002
 DIRECTION dim           33  value  -0.30850640005019236     
 DIRECTION dim           34  value   -4.7910301501949880E-002
 DIRECTION dim           35  value   -6.6414602193574493E-002
 DIRECTION dim           36  value  -0.53307503586318661     
 DIRECTION dim           37  value    3.6795329078929497E-003
 DIRECTION dim           38  value   -3.3690094848313118E-004
 DIRECTION dim           39  value   0.22724176321472878     
 DIRECTION dim           40  value   -2.2978076352038121E-002
 DIRECTION dim           41  value    5.3334499496769251E-002
 DIRECTION dim           42  value   0.17940483504888821     
 DIRECTION dim           43  value    4.8415449364828653E-002
 DIRECTION dim           44  value   0.25316738279446988     
 DIRECTION dim           45  value  -0.19581201187352129     
 DIRECTION dim           46  value    5.5870648275117972E-002
 DIRECTION dim           47  value   -2.8840543419902550E-002
 DIRECTION dim           48  value    7.9444783227337820E-003
  Cycle:     14 Energy:      -172.188761  Gnorm:     19.979868  CPU:    0.109
 ALPHA BEFORE:    8.0000000000000019E-003
 XC BEFORE:   0.67408985959111156     
  ** Opt : line minimisation
left   ...       0.00000000    -172.18876122
centre ...       0.00100000    -173.07958933
right  ...       0.00200000    -173.96717304

left   ...       0.00000000    -172.18876122
centre ...       0.00100000    -173.07958933
right  ...       0.00200000    -173.96717304
new    ...       0.00300000    -174.85151536

__s__    ...       0.00100000

left   ...       0.00100000    -173.07958933
centre ...       0.00200000    -173.96717304
right  ...       0.00300000    -174.85151536
new    ...       0.00400000    -175.73261919

__s__    ...       0.00100000

left   ...       0.00200000    -173.96717304
centre ...       0.00300000    -174.85151536
right  ...       0.00400000    -175.73261919
new    ...       0.00500000    -176.61048736

__s__    ...       0.00100000

left   ...       0.00300000    -174.85151536
centre ...       0.00400000    -175.73261919
right  ...       0.00500000    -176.61048736
new    ...       0.00600000    -177.48529766

__s__    ...       0.00100000

left   ...       0.00400000    -175.73261919
centre ...       0.00500000    -176.61048736
right  ...       0.00600000    -177.48529766
new    ...       0.00700000    -178.35670279

__s__    ...       0.00100000

left   ...       0.00500000    -176.61048736
centre ...       0.00600000    -177.48529766
right  ...       0.00700000    -178.35670279
new    ...       0.00800000    -179.22488025

__s__    ...       0.00100000

 ALPHA AFTER:    8.0000000000000019E-003
 XC AFTER:   0.67474992408040890     
 SANITY CHECK:    7.9999999999989819E-003
 DIRECTION dim            1  value    8.2508061162178084E-002
 DIRECTION dim            2  value  -0.13165604638850942     
 DIRECTION dim            3  value   -8.4812129869981476E-002
 DIRECTION dim            4  value   -5.0340891667071466E-002
 DIRECTION dim            5  value   -1.9435287676031497E-002
 DIRECTION dim            6  value   0.14023588382632826     
 DIRECTION dim            7  value  -0.12340028977675849     
 DIRECTION dim            8  value    2.7707072755291328E-003
 DIRECTION dim            9  value    2.8657034264555761E-002
 DIRECTION dim           10  value   -4.9901556889946491E-002
 DIRECTION dim           11  value    1.6548902621908789E-002
 DIRECTION dim           12  value    4.2720531655725563E-002
 DIRECTION dim           13  value    3.6865420276070010E-002
 DIRECTION dim           14  value   -4.1444413557426847E-002
 DIRECTION dim           15  value   -6.0278074014250435E-002
 DIRECTION dim           16  value   -9.8322021441213966E-004
 DIRECTION dim           17  value   -2.5129346130740186E-002
 DIRECTION dim           18  value   0.10323519968762651     
 DIRECTION dim           19  value    9.1616505077054100E-002
 DIRECTION dim           20  value   0.14037499718391722     
 DIRECTION dim           21  value  -0.18247200522741441     
 DIRECTION dim           22  value   0.12899256888348556     
 DIRECTION dim           23  value    4.1222641984745793E-003
 DIRECTION dim           24  value   0.26441467577153654     
 DIRECTION dim           25  value   -7.9322004412078290E-002
 DIRECTION dim           26  value   -2.3322576068972145E-002
 DIRECTION dim           27  value    4.1025684923261189E-002
 DIRECTION dim           28  value    8.0290116420663124E-003
 DIRECTION dim           29  value   0.10189149463561610     
 DIRECTION dim           30  value   0.22693701844567399     
 DIRECTION dim           31  value    6.9050350238891681E-002
 DIRECTION dim           32  value    3.8620278850735247E-002
 DIRECTION dim           33  value  -0.29838312310811621     
 DIRECTION dim           34  value   -4.8204589765308122E-002
 DIRECTION dim           35  value   -6.3933434914670975E-002
 DIRECTION dim           36  value  -0.52315883169361588     
 DIRECTION dim           37  value    3.7388020853099963E-003
 DIRECTION dim           38  value    5.2935350624352679E-004
 DIRECTION dim           39  value   0.21435706080087941     
 DIRECTION dim           40  value   -2.2135154436531260E-002
 DIRECTION dim           41  value    5.1413686848185342E-002
 DIRECTION dim           42  value   0.17495073105712919     
 DIRECTION dim           43  value    4.0815734310495115E-002
 DIRECTION dim           44  value   0.24363214339064046     
 DIRECTION dim           45  value  -0.19169042918813911     
 DIRECTION dim           46  value    5.4361992098967617E-002
 DIRECTION dim           47  value   -2.9391988396227905E-002
 DIRECTION dim           48  value    7.6649235506290672E-003
  Cycle:     15 Energy:      -179.224880  Gnorm:     19.404234  CPU:    0.115
 ALPHA BEFORE:    8.0000000000000019E-003
 XC BEFORE:   0.67474992408040890     
  ** Opt : line minimisation
left   ...       0.00000000    -179.22488025
centre ...       0.00100000    -180.06592202
right  ...       0.00200000    -180.90399065

left   ...       0.00000000    -179.22488025
centre ...       0.00100000    -180.06592202
right  ...       0.00200000    -180.90399065
new    ...       0.00300000    -181.73908754

__s__    ...       0.00100000

left   ...       0.00100000    -180.06592202
centre ...       0.00200000    -180.90399065
right  ...       0.00300000    -181.73908754
new    ...       0.00400000    -182.57121402

__s__    ...       0.00100000

left   ...       0.00200000    -180.90399065
centre ...       0.00300000    -181.73908754
right  ...       0.00400000    -182.57121402
new    ...       0.00500000    -183.40054640

__s__    ...       0.00100000

left   ...       0.00300000    -181.73908754
centre ...       0.00400000    -182.57121402
right  ...       0.00500000    -183.40054640
new    ...       0.00600000    -184.22673597

__s__    ...       0.00100000

left   ...       0.00400000    -182.57121402
centre ...       0.00500000    -183.40054640
right  ...       0.00600000    -184.22673597
new    ...       0.00700000    -185.05013396

__s__    ...       0.00100000

left   ...       0.00500000    -183.40054640
centre ...       0.00600000    -184.22673597
right  ...       0.00700000    -185.05013396
new    ...       0.00800000    -185.87039128

__s__    ...       0.00100000

 ALPHA AFTER:    8.0000000000000019E-003
 XC AFTER:   0.67540264123467075     
 SANITY CHECK:    7.9999999999985760E-003
 DIRECTION dim            1  value    8.1589644282745816E-002
 DIRECTION dim            2  value  -0.12834783610337450     
 DIRECTION dim            3  value   -8.0202419414956455E-002
 DIRECTION dim            4  value   -4.9605272965418196E-002
 DIRECTION dim            5  value   -1.8959387220334592E-002
 DIRECTION dim            6  value   0.14001781125644855     
 DIRECTION dim            7  value  -0.12157012428965330     
 DIRECTION dim            8  value    2.6936142130888170E-003
 DIRECTION dim            9  value    2.2221656406938441E-002
 DIRECTION dim           10  value   -4.9713562216821633E-002
 DIRECTION dim           11  value    1.6119955027515228E-002
[...]
 DIRECTION dim           16  value   -5.4317040598252911E-005
 DIRECTION dim           17  value   -8.5698529114006344E-005
 DIRECTION dim           18  value   -7.1825130224654883E-005
 DIRECTION dim           19  value   -4.2416619346493425E-005
 DIRECTION dim           20  value    8.5892370215222990E-005
 DIRECTION dim           21  value    4.1242680513636967E-005
 DIRECTION dim           22  value   -3.3318601322363188E-005
 DIRECTION dim           23  value    1.4282262581166966E-005
 DIRECTION dim           24  value   -4.1973351435268517E-006
 DIRECTION dim           25  value   -6.7821363735912483E-005
 DIRECTION dim           26  value   -5.4514332095905629E-006
 DIRECTION dim           27  value    3.5415690148465706E-006
 DIRECTION dim           28  value   -1.3333802942480389E-005
 DIRECTION dim           29  value   -1.1655478932542706E-005
 DIRECTION dim           30  value   -3.8071614011815203E-005
 DIRECTION dim           31  value   -3.7266695601900203E-005
 DIRECTION dim           32  value    3.4073717284556394E-005
 DIRECTION dim           33  value   -3.1116788332047419E-005
 DIRECTION dim           34  value   -2.7654580577698947E-005
 DIRECTION dim           35  value    3.9476822603497153E-006
 DIRECTION dim           36  value   -2.7564904822061642E-005
 DIRECTION dim           37  value   -2.4815009894688454E-005
 DIRECTION dim           38  value   -4.7558599998076465E-005
 DIRECTION dim           39  value   -4.1018995407532780E-005
 DIRECTION dim           40  value   -2.6938623589382614E-005
 DIRECTION dim           41  value    2.3685663344815384E-005
 DIRECTION dim           42  value    1.1058543230356072E-005
 DIRECTION dim           43  value    3.4463197130094412E-005
 DIRECTION dim           44  value   -1.1222613917877296E-005
 DIRECTION dim           45  value   -1.8703139723744436E-005
 DIRECTION dim           46  value   -5.1912897974737998E-005
 DIRECTION dim           47  value   -1.4248142223358277E-005
 DIRECTION dim           48  value    5.5863314441604662E-005
  Cycle:    164 Energy:      -468.596994  Gnorm:      0.001292  CPU:    0.978
 ALPHA BEFORE:    4.4314368797838469E-003
 XC BEFORE:   0.79839371788417091     
  ** Opt : line minimisation
left   ...       0.00000000    -468.59699413
centre ...       0.00110786    -468.59681913
right  ...      -0.00110786    -468.59699412

left   ...      -0.00110786    -468.59699412
centre ...       0.00000000    -468.59699413
right  ...       0.00110786    -468.59681913
new    ...      -0.00055390    -468.59699412

__s__    ...       0.00055396

 ALPHA AFTER:   -5.5389972190954533E-004
 XC AFTER:   0.79839371788417091     
 SANITY CHECK:   -0.0000000000000000     
 DIRECTION dim            1  value   -6.7819744572175775E-005
 DIRECTION dim            2  value    1.1383860873524165E-005
 DIRECTION dim            3  value   -5.5128507214938525E-005
 DIRECTION dim            4  value   -5.1249012376338192E-005
 DIRECTION dim            5  value    1.1250793591707205E-005
 DIRECTION dim            6  value   -3.4501236888828514E-005
 DIRECTION dim            7  value   -5.3504561414116206E-005
 DIRECTION dim            8  value   -5.0435720502047633E-005
 DIRECTION dim            9  value   -6.0913743476748120E-005
 DIRECTION dim           10  value   -1.4164362513289549E-005
 DIRECTION dim           11  value    6.9612382078111266E-005
 DIRECTION dim           12  value    4.1055849622775203E-005
 DIRECTION dim           13  value   -7.2901338045403826E-006
 DIRECTION dim           14  value   -5.7479331345892282E-005
 DIRECTION dim           15  value   -1.7191099474918108E-005
 DIRECTION dim           16  value   -5.3896463432616339E-005
 DIRECTION dim           17  value   -8.5035033097283515E-005
 DIRECTION dim           18  value   -7.1268998252760790E-005
 DIRECTION dim           19  value   -4.2088317510679418E-005
 DIRECTION dim           20  value    8.5227512641532864E-005
 DIRECTION dim           21  value    4.0923519050691108E-005
 DIRECTION dim           22  value   -3.3060611182736357E-005
 DIRECTION dim           23  value    1.4171723224800880E-005
 DIRECTION dim           24  value   -4.1647425617908728E-006
 DIRECTION dim           25  value   -6.7296303569798125E-005
 DIRECTION dim           26  value   -5.4092401480963095E-006
 DIRECTION dim           27  value    3.5142688923786506E-006
 DIRECTION dim           28  value   -1.3230552976332637E-005
 DIRECTION dim           29  value   -1.1565371343015245E-005
 DIRECTION dim           30  value   -3.7776855578290892E-005
 DIRECTION dim           31  value   -3.6978191568130510E-005
 DIRECTION dim           32  value    3.3809963295672905E-005
 DIRECTION dim           33  value   -3.0875844799800541E-005
 DIRECTION dim           34  value   -2.7440569072550962E-005
 DIRECTION dim           35  value    3.9171242158818549E-006
 DIRECTION dim           36  value   -2.7351429614648543E-005
 DIRECTION dim           37  value   -2.4622888185948775E-005
 DIRECTION dim           38  value   -4.7190359958332124E-005
 DIRECTION dim           39  value   -4.0701376575656002E-005
 DIRECTION dim           40  value   -2.6730063970828834E-005
 DIRECTION dim           41  value    2.3502308808944568E-005
 DIRECTION dim           42  value    1.0973007486215308E-005
 DIRECTION dim           43  value    3.4196491153001898E-005
 DIRECTION dim           44  value   -1.1135817747541259E-005
 DIRECTION dim           45  value   -1.8566152928490104E-005
 DIRECTION dim           46  value   -5.1499654449817929E-005
 DIRECTION dim           47  value   -1.4138480185032208E-005
 DIRECTION dim           48  value    5.5432743921269991E-005
  Cycle:    165 Energy:      -468.596994  Gnorm:      0.001292  CPU:    0.982
  ** Hessian calculated **
 ALPHA BEFORE:    1.0000000000000000     
 XC BEFORE:   0.79839371788417091     
  ** Opt : line minimisation
left   ...       0.00000000    -468.59699413
centre ...       0.10000000    -468.59681960
right  ...      -0.10000000    -468.59699361

left   ...      -0.10000000    -468.59699361
centre ...       0.00000000    -468.59699413
right  ...       0.10000000    -468.59681960
new    ...      -0.04970488    -468.59699388

__s__    ...       0.05029512

left   ...      -0.04970488    -468.59699388
centre ...       0.00000000    -468.59699413
right  ...       0.10000000    -468.59681960
new    ...      -0.02463692    -468.59699400

__s__    ...       0.02506795

left   ...      -0.02463692    -468.59699400
centre ...       0.00000000    -468.59699413
right  ...       0.10000000    -468.59681960
new    ...      -0.01214127    -468.59699407

__s__    ...       0.01249565

 ALPHA AFTER:   -1.2141268749008382E-002
 XC AFTER:   0.79839371788417091     
 SANITY CHECK:   -0.0000000000000000     
 DIRECTION dim            1  value   -9.1103740326103330E-005
 DIRECTION dim            2  value    1.5290762124641161E-005
 DIRECTION dim            3  value   -7.4041882345317854E-005
 DIRECTION dim            4  value   -6.8843490241632925E-005
 DIRECTION dim            5  value    1.5111270491118190E-005
 DIRECTION dim            6  value   -4.6327577140056170E-005
 DIRECTION dim            7  value   -7.1867771413145975E-005
 DIRECTION dim            8  value   -6.7735483055559760E-005
 DIRECTION dim            9  value   -8.1804772818458755E-005
 DIRECTION dim           10  value   -1.9032369982912447E-005
 DIRECTION dim           11  value    9.3504092027349274E-005
 DIRECTION dim           12  value    5.5152115876584298E-005
 DIRECTION dim           13  value   -9.8083326707599833E-006
 DIRECTION dim           14  value   -7.7192032145251646E-005
 DIRECTION dim           15  value   -2.3082828033809020E-005
 DIRECTION dim           16  value   -7.2386167851783899E-005
 DIRECTION dim           17  value   -1.1421081282616801E-004
 DIRECTION dim           18  value   -9.5716429131752814E-005
 DIRECTION dim           19  value   -5.6536013103638334E-005
 DIRECTION dim           20  value    1.1448975975797202E-004
 DIRECTION dim           21  value    5.4984329031097562E-005
 DIRECTION dim           22  value   -4.4410529464022372E-005
 DIRECTION dim           23  value    1.9036643629955924E-005
 DIRECTION dim           24  value   -5.5842179087560497E-006
 DIRECTION dim           25  value   -9.0395336880766655E-005
 DIRECTION dim           26  value   -7.2653789939695244E-006
 DIRECTION dim           27  value    4.7342431019350167E-006
 DIRECTION dim           28  value   -1.7774458643474056E-005
 DIRECTION dim           29  value   -1.5542211157790849E-005
 DIRECTION dim           30  value   -5.0739512076327166E-005
 DIRECTION dim           31  value   -4.9676023047942261E-005
 DIRECTION dim           32  value    4.5414879817429058E-005
 DIRECTION dim           33  value   -4.1469313090437289E-005
 DIRECTION dim           34  value   -3.6868369871532850E-005
 DIRECTION dim           35  value    5.2627787889735961E-006
 DIRECTION dim           36  value   -3.6729261179927166E-005
 DIRECTION dim           37  value   -3.3072869319146512E-005
 DIRECTION dim           38  value   -6.3378595142434888E-005
 DIRECTION dim           39  value   -5.4660512165279773E-005
 DIRECTION dim           40  value   -3.5902535324898325E-005
 DIRECTION dim           41  value    3.1571851067469848E-005
 DIRECTION dim           42  value    1.4748345965291353E-005
 DIRECTION dim           43  value    4.4536951784251370E-005
 DIRECTION dim           44  value   -1.2436601880063097E-005
 DIRECTION dim           45  value   -4.6572859445811442E-005
 DIRECTION dim           46  value   -8.8053872489544851E-005
 DIRECTION dim           47  value   -2.4972048135568093E-005
 DIRECTION dim           48  value    6.6393436659138534E-005
  Cycle:    166 Energy:      -468.596994  Gnorm:      0.001292  CPU:    0.989
  ** Hessian calculated **
 ALPHA BEFORE:    1.0000000000000000     
 XC BEFORE:   0.79839371788417091     
  ** Opt : line minimisation
left   ...       0.00000000    -468.59699413
centre ...       0.10000000    -468.59681960
right  ...      -0.10000000    -468.59699361

left   ...      -0.10000000    -468.59699361
centre ...       0.00000000    -468.59699413
right  ...       0.10000000    -468.59681960
new    ...      -0.04970488    -468.59699388

__s__    ...       0.05029512

left   ...      -0.04970488    -468.59699388
centre ...       0.00000000    -468.59699413
right  ...       0.10000000    -468.59681960
new    ...      -0.02463692    -468.59699400

__s__    ...       0.02506795

left   ...      -0.02463692    -468.59699400
centre ...       0.00000000    -468.59699413
right  ...       0.10000000    -468.59681960
new    ...      -0.01214127    -468.59699407

__s__    ...       0.01249565

 ALPHA AFTER:   -1.2141268749008382E-002
 XC AFTER:   0.79839371788417091     
 SANITY CHECK:   -0.0000000000000000     
 DIRECTION dim            1  value   -9.1103740326103330E-005
 DIRECTION dim            2  value    1.5290762124641161E-005
 DIRECTION dim            3  value   -7.4041882345317854E-005
 DIRECTION dim            4  value   -6.8843490241632925E-005
 DIRECTION dim            5  value    1.5111270491118190E-005
 DIRECTION dim            6  value   -4.6327577140056170E-005
 DIRECTION dim            7  value   -7.1867771413145975E-005
 DIRECTION dim            8  value   -6.7735483055559760E-005
 DIRECTION dim            9  value   -8.1804772818458755E-005
 DIRECTION dim           10  value   -1.9032369982912447E-005
 DIRECTION dim           11  value    9.3504092027349274E-005
 DIRECTION dim           12  value    5.5152115876584298E-005
 DIRECTION dim           13  value   -9.8083326707599833E-006
 DIRECTION dim           14  value   -7.7192032145251646E-005
 DIRECTION dim           15  value   -2.3082828033809020E-005
 DIRECTION dim           16  value   -7.2386167851783899E-005
 DIRECTION dim           17  value   -1.1421081282616801E-004
 DIRECTION dim           18  value   -9.5716429131752814E-005
 DIRECTION dim           19  value   -5.6536013103638334E-005
 DIRECTION dim           20  value    1.1448975975797202E-004
 DIRECTION dim           21  value    5.4984329031097562E-005
 DIRECTION dim           22  value   -4.4410529464022372E-005
 DIRECTION dim           23  value    1.9036643629955924E-005
 DIRECTION dim           24  value   -5.5842179087560497E-006
 DIRECTION dim           25  value   -9.0395336880766655E-005
 DIRECTION dim           26  value   -7.2653789939695244E-006
 DIRECTION dim           27  value    4.7342431019350167E-006
 DIRECTION dim           28  value   -1.7774458643474056E-005
 DIRECTION dim           29  value   -1.5542211157790849E-005
 DIRECTION dim           30  value   -5.0739512076327166E-005
 DIRECTION dim           31  value   -4.9676023047942261E-005
 DIRECTION dim           32  value    4.5414879817429058E-005
 DIRECTION dim           33  value   -4.1469313090437289E-005
 DIRECTION dim           34  value   -3.6868369871532850E-005
 DIRECTION dim           35  value    5.2627787889735961E-006
 DIRECTION dim           36  value   -3.6729261179927166E-005
 DIRECTION dim           37  value   -3.3072869319146512E-005
 DIRECTION dim           38  value   -6.3378595142434888E-005
 DIRECTION dim           39  value   -5.4660512165279773E-005
 DIRECTION dim           40  value   -3.5902535324898325E-005
 DIRECTION dim           41  value    3.1571851067469848E-005
 DIRECTION dim           42  value    1.4748345965291353E-005
 DIRECTION dim           43  value    4.4536951784251370E-005
 DIRECTION dim           44  value   -1.2436601880063097E-005
 DIRECTION dim           45  value   -4.6572859445811442E-005
 DIRECTION dim           46  value   -8.8053872489544851E-005
 DIRECTION dim           47  value   -2.4972048135568093E-005
 DIRECTION dim           48  value    6.6393436659138534E-005


  **** Conditions for a minimum have not been satisfied. However ****
  **** no lower point can be found - treat results with caution  ****
  **** unless gradient norm is small (less than 0.1)             ****


  Final energy =    -468.59699413 eV
  Final Gnorm  =       0.00129164

  Components of energy : 

--------------------------------------------------------------------------------
  Interatomic potentials     =          73.12357263 eV    
  Monopole - monopole (real) =        -279.06664163 eV    
  Monopole - monopole (recip)=        -262.65392513 eV    
  Monopole - monopole (total)=        -541.72056676 eV    
--------------------------------------------------------------------------------
  Total lattice energy       =        -468.59699413 eV    
--------------------------------------------------------------------------------
  Total lattice energy       =          -45212.4468 kJ/(mole unit cells)
--------------------------------------------------------------------------------

  Final fractional coordinates of atoms :

--------------------------------------------------------------------------------
   No.  Atomic        x           y          z          Radius
        Label       (Frac)      (Frac)     (Frac)       (Angs) 
--------------------------------------------------------------------------------
     1  O     c     0.000000    0.333330    0.833330    0.000000
     2  O     c     0.798394    0.642513    0.233205    0.000000
     3  O     c     0.439240    0.689251    0.421627    0.000000
     4  O     c     0.236963    0.006942    0.068069    0.000000
     5  O     c     0.680364    0.320115    0.490753    0.000000
     6  O     c     0.408782    0.388098    0.119312    0.000000
     7  O     c     0.434571    0.201201    0.751022    0.000000
     8  O     c     0.755290    0.050406    0.968748    0.000000
     9  O     c     0.866605    0.980576    0.610132    0.000000
    10  Sr    c     0.618612    0.984980    0.261701    0.000000
    11  Sr    c     0.929713    0.728756    0.912564    0.000000
    12  Sr    c     0.122206    0.863581    0.403238    0.000000
    13  Ti    c     0.583547    0.507233    0.324537    0.000000
    14  Ti    c     0.254273    0.227516    0.931645    0.000000
    15  Ti    c     0.737739    0.177597    0.732381    0.000000
--------------------------------------------------------------------------------

  Final Cartesian lattice vectors (Angstroms) :

        6.216389   -0.156266   -0.318947
       -0.156266    6.850273   -0.009266
       -0.637894   -0.018531    6.753040


  Final cell parameters and derivatives :

--------------------------------------------------------------------------------
       a            6.226527 Angstrom     dE/de1(xx)    -0.004053 eV/strain
       b            6.852061 Angstrom     dE/de2(yy)    -0.005447 eV/strain
       c            6.783127 Angstrom     dE/de3(zz)    -0.014909 eV/strain
       alpha       90.110744 Degrees      dE/de4(yz)    -0.010861 eV/strain
       beta        98.326648 Degrees      dE/de5(xz)     0.004764 eV/strain
       gamma       92.739187 Degrees      dE/de6(xy)    -0.000380 eV/strain
--------------------------------------------------------------------------------

  Primitive cell volume =           286.009663 Angs**3

  Density of cell =      3.196190 g/cm**3

  Non-primitive cell volume =           286.009663 Angs**3


  Final internal derivatives :

--------------------------------------------------------------------------------
   No.  Atomic          a             b             c           Radius
        Label          (eV)          (eV)          (eV)        (eV/Angs)
--------------------------------------------------------------------------------
      1 O     c       0.000000      0.000000      0.000000      0.000000
      2 O     c       0.001922     -0.000518      0.006210      0.000000
      3 O     c       0.007922     -0.009145     -0.009507      0.000000
      4 O     c       0.002924      0.000375     -0.000609      0.000000
      5 O     c       0.010162     -0.013788      0.000430      0.000000
      6 O     c       0.001833     -0.004712     -0.003859      0.000000
      7 O     c      -0.023028      0.015400      0.015532      0.000000
      8 O     c       0.018138     -0.011165     -0.011490      0.000000
      9 O     c      -0.012238      0.000584      0.013626      0.000000
     10 Sr    c       0.003216      0.002168     -0.000583      0.000000
     11 Sr    c      -0.007153      0.010290      0.007435      0.000000
     12 Sr    c      -0.004641      0.000042      0.000236      0.000000
     13 Ti    c      -0.011784      0.012799     -0.003394      0.000000
     14 Ti    c       0.015557      0.002960      0.001482      0.000000
     15 Ti    c       0.003795     -0.003036     -0.006490      0.000000
--------------------------------------------------------------------------------
  Maximum abs         0.023028      0.015400      0.015532      0.000000
--------------------------------------------------------------------------------


  Time to end of optimisation =       0.9958 seconds

 Exiting ------OPTIONS------

  Peak dynamic memory used =       0.60 MB 


  Timing analysis for GULP :

--------------------------------------------------------------------------------
  Task / Subroutine                                          Time (Seconds)
--------------------------------------------------------------------------------
  Calculation of reciprocal space energy and derivatives          0.1067
  Calculation of real space energy and derivatives                0.8602
  Calculation and manipulation of Hessian matrix                  0.0002
  Calculation of matrix inversion                                 0.0006
  Global summation overhead                                       0.0006
--------------------------------------------------------------------------------
  Total CPU time                                                  0.9958
--------------------------------------------------------------------------------


  Job Finished at 13:26.46 21st February   2020                               

