********************************************************************************
*                       GENERAL UTILITY LATTICE PROGRAM                        *
*                                 Julian Gale                                  *
*                       Curtin Institute for Computation                       *
*                           Department of Chemistry                            *
*                    Curtin University, Western Australia                      *
********************************************************************************
* Version = 5.1.1 * Last modified =  25th August 2019                          *
********************************************************************************
*  optimise     - perform optimisation run                                     *
*  conp         - constant pressure calculation                                *
*  nosymmetry   - turn off symmetry after initial structure generation         *
*  full         - generate full unit cell when symmetry is removed             *
*  conjugate    - use conjugate gradients minimiser                            *
********************************************************************************
* ASE calculation                                                              *
********************************************************************************


  Job Started  at 11:51.24  4th February   2020                               

  Number of CPUs =     1


  Total number of configurations input =      1

********************************************************************************
*  Input for Configuration =   1                                               *
********************************************************************************

  Formula = Sr3Ti3O9                                                    

  Number of irreducible atoms/shells =      15


  Total number atoms/shells =      15

  Dimensionality = 3               :  Bulk   



  Cartesian lattice vectors (Angstroms) :

       12.000000    0.000000    0.000000
        0.000000    4.000000    0.000000
        0.000000    0.000000    4.000000

  Cell parameters (Angstroms/Degrees):

  a =      12.0000    alpha =  90.0000
  b =       4.0000    beta  =  90.0000
  c =       4.0000    gamma =  90.0000

  Initial cell volume =         192.000000 Angs**3

  Temperature of configuration =  0.000     K 

  Pressure of configuration =         0.000 GPa 

  Fractional coordinates of asymmetric unit :

--------------------------------------------------------------------------------
   No.  Atomic       x           y          z         Charge      Occupancy
        Label      (Frac)      (Frac)     (Frac)        (e)         (Frac)  
--------------------------------------------------------------------------------
      1 Sr    c    0.999960    0.999870    0.000550     2.00000    1.000000    
      2 Ti    c    0.166670 *  0.500120 *  0.500000 *   4.00000    1.000000    
      3 O     c    0.999860 *  0.499900 *  0.500580 *  -2.00000    1.000000    
      4 O     c    0.166680 *  0.000170 *  0.499980 *  -2.00000    1.000000    
      5 O     c    0.166710 *  0.500200 *  0.999660 *  -2.00000    1.000000    
      6 Sr    c    0.333470 *  0.000350 *  0.000010 *   2.00000    1.000000    
      7 Ti    c    0.500270 *  0.499340 *  0.499380 *   4.00000    1.000000    
      8 O     c    0.333310 *  0.499790 *  0.499620 *  -2.00000    1.000000    
      9 O     c    0.499980 *  0.999440 *  0.500200 *  -2.00000    1.000000    
     10 O     c    0.500030 *  0.500400 *  0.000150 *  -2.00000    1.000000    
     11 Sr    c    0.666540 *  0.999940 *  0.999970 *   2.00000    1.000000    
     12 Ti    c    0.833350 *  0.499710 *  0.499670 *   4.00000    1.000000    
     13 O     c    0.666530 *  0.499700 *  0.500090 *  -2.00000    1.000000    
     14 O     c    0.833150 *  0.000100 *  0.500050 *  -2.00000    1.000000    
     15 O     c    0.833380 *  0.500160 *  0.000120 *  -2.00000    1.000000    
--------------------------------------------------------------------------------



********************************************************************************
*  General input information                                                   *
********************************************************************************

  Species output for all configurations : 

--------------------------------------------------------------------------------
  Species    Type    Atomic    Atomic    Charge       Radii (Angs)     Library
                     Number     Mass       (e)     Cova   Ionic  VDW   Symbol
--------------------------------------------------------------------------------
    Sr       Core       38      87.62   2.000000   1.120  0.000  1.670          
    Ti       Core       22      47.88   4.000000   1.470  0.000  2.190          
    O        Core        8      16.00  -2.000000   0.730  0.000  1.360          
--------------------------------------------------------------------------------


  Lattice summation method               =    Ewald          (3-D)
                                         =    Parry          (2-D)
                                         =    Saunders et al (1-D)
  Accuracy factor for lattice sums       =   12.000


  Time limit = Infinity

  Maximum range for interatomic potentials =    100000.000000 Angstroms

  General interatomic potentials :

--------------------------------------------------------------------------------
Atom  Types   Potential      Parameter       Value         Units   Cutoffs(Ang)
  1     2                                                            Min /  Max 
--------------------------------------------------------------------------------
O    c Sr   c Buckingham    Buckingham A     1952.3900    eV        0.000 10.000
                            Buckingham rho  0.33685000    Ang       
                            Buckingham C     19.220000    eV*Ang^6  
--------------------------------------------------------------------------------
O    c Ti   c Buckingham    Buckingham A     4590.7279    eV        0.000 10.000
                            Buckingham rho  0.26100000    Ang       
                            Buckingham C     0.0000000    eV*Ang^6  
--------------------------------------------------------------------------------
O    c O    c Buckingham    Buckingham A     1388.7700    eV        0.000 10.000
                            Buckingham rho  0.36262000    Ang       
                            Buckingham C     175.00000    eV*Ang^6  
--------------------------------------------------------------------------------
 Calling ------OPTIONS------

********************************************************************************
*  Output for configuration   1                                                *
********************************************************************************


  Components of energy : 

--------------------------------------------------------------------------------
  Interatomic potentials     =          59.32156790 eV    
  Monopole - monopole (real) =        -234.57439053 eV    
  Monopole - monopole (recip)=        -300.12335562 eV    
  Monopole - monopole (total)=        -534.69774615 eV    
--------------------------------------------------------------------------------
  Total lattice energy       =        -475.37617825 eV    
--------------------------------------------------------------------------------
  Total lattice energy       =          -45866.5344 kJ/(mole unit cells)
--------------------------------------------------------------------------------


  Number of variables =       48

  Maximum number of calculations  =          1000
  Maximum Hessian update interval =            10
  Maximum step size               =   1.000000000
  Maximum parameter tolerance     =   0.000010000
  Maximum function  tolerance     =   0.000010000
  Maximum gradient  tolerance     =   0.001000000
  Maximum gradient  component     =   0.010000000

  Cell parameters to be optimised using strains

  Conjugate gradient optimiser to be used

  Lower half triangular hessian to be used

  Start of bulk optimisation :

  Cycle:      0 Energy:      -475.376178  Gnorm:      0.418174  CPU:    0.011
 Line minimisation2
 ALPHA BEFORE:    1.0000000000000000     
  ** Opt : line minimisation
left   ...       0.00000000    -475.37617825
centre ...       0.25000000    -475.46049989
right  ...       0.50000000    -475.51142990

left   ...       0.00000000    -475.37617825
centre ...       0.25000000    -475.46049989
right  ...       0.50000000    -475.51142990
new    ...       0.75630828    -475.52804166

__s__    ...       0.25630828

 ALPHA AFTER:   0.75630828475232981     
  Cycle:      1 Energy:      -475.528042  Gnorm:      0.671276  CPU:    0.018
 Perform trimming
 Line minimisation2
 ALPHA BEFORE:   0.75630828475232981     
  ** Opt : line minimisation
left   ...       0.00000000    -475.52804166
centre ...       0.18907707    -475.56350110
right  ...       0.37815414    -475.47732340

left   ...       0.00000000    -475.52804166
centre ...       0.18907707    -475.56350110
right  ...       0.37815414    -475.47732340
new    ...       0.14965794    -475.56605188

__s__    ...      -0.22849621

left   ...       0.00000000    -475.52804166
centre ...       0.14965794    -475.56605188
right  ...       0.18907707    -475.56350110
new    ...       0.15017166    -475.56605253

__s__    ...       0.00051373

 ALPHA AFTER:   0.15017166294178641     
  Cycle:      2 Energy:      -475.566053  Gnorm:      0.073696  CPU:    0.025
 Line minimisation2
 ALPHA BEFORE:   0.15017166294178641     
  ** Opt : line minimisation
left   ...       0.00000000    -475.56605253
centre ...       0.03754292    -475.56647153
right  ...       0.07508583    -475.56678951

left   ...       0.00000000    -475.56605253
centre ...       0.03754292    -475.56647153
right  ...       0.07508583    -475.56678951
new    ...       0.17448881    -475.56714420

__s__    ...       0.09940298

 ALPHA AFTER:   0.17448880920508728     
  Cycle:      3 Energy:      -475.567144  Gnorm:      0.016609  CPU:    0.030
 Line minimisation2
 ALPHA BEFORE:   0.17448880920508728     
  ** Opt : line minimisation
left   ...       0.00000000    -475.56714420
centre ...       0.04362220    -475.56716532
right  ...       0.08724440    -475.56717311

left   ...       0.00000000    -475.56714420
centre ...       0.04362220    -475.56716532
right  ...       0.08724440    -475.56717311
new    ...       0.09095375    -475.56717316

__s__    ...       0.00370935

 ALPHA AFTER:    9.0953754107018975E-002
  Cycle:      4 Energy:      -475.567173  Gnorm:      0.010347  CPU:    0.034
 Line minimisation2
 ALPHA BEFORE:    9.0953754107018975E-002
  ** Opt : line minimisation
left   ...       0.00000000    -475.56717316
centre ...       0.02273844    -475.56717858
right  ...       0.04547688    -475.56718362

left   ...       0.00000000    -475.56717316
centre ...       0.02273844    -475.56717858
right  ...       0.04547688    -475.56718362
new    ...       0.33482813    -475.56721449

__s__    ...       0.28935126

 ALPHA AFTER:   0.33482813469133910     
  Cycle:      5 Energy:      -475.567214  Gnorm:      0.009460  CPU:    0.037
 Line minimisation2
 ALPHA BEFORE:   0.33482813469133910     
  ** Opt : line minimisation
left   ...       0.00000000    -475.56721449
centre ...       0.08370703    -475.56722962
right  ...       0.16741407    -475.56724049

left   ...       0.00000000    -475.56721449
centre ...       0.08370703    -475.56722962
right  ...       0.16741407    -475.56724049
new    ...       0.33903565    -475.56724946

__s__    ...       0.17162158

 ALPHA AFTER:   0.33903564832715133     
  Cycle:      6 Energy:      -475.567249  Gnorm:      0.005610  CPU:    0.040
 Line minimisation2
 ALPHA BEFORE:   0.33903564832715133     
  ** Opt : line minimisation
left   ...       0.00000000    -475.56724946
centre ...       0.08475891    -475.56725519
right  ...       0.16951782    -475.56726008

left   ...       0.00000000    -475.56724946
centre ...       0.08475891    -475.56725519
right  ...       0.16951782    -475.56726008
new    ...       0.62359177    -475.56727208

__s__    ...       0.45407394

 ALPHA AFTER:   0.62359176557030560     
  Cycle:      7 Energy:      -475.567272  Gnorm:      0.005199  CPU:    0.043
 Line minimisation2
 ALPHA BEFORE:   0.62359176557030560     
  ** Opt : line minimisation
left   ...       0.00000000    -475.56727208
centre ...       0.15589794    -475.56727521
right  ...       0.31179588    -475.56726517

left   ...       0.00000000    -475.56727208
centre ...       0.15589794    -475.56727521
right  ...       0.31179588    -475.56726517
new    ...       0.11502653    -475.56727566

__s__    ...      -0.19676936

 ALPHA AFTER:   0.11502652530566446     
  Cycle:      8 Energy:      -475.567276  Gnorm:      0.004162  CPU:    0.046
 Line minimisation2
 ALPHA BEFORE:   0.11502652530566446     
  ** Opt : line minimisation
left   ...       0.00000000    -475.56727566
centre ...       0.02875663    -475.56727676
right  ...       0.05751326    -475.56727773

left   ...       0.00000000    -475.56727566
centre ...       0.02875663    -475.56727676
right  ...       0.05751326    -475.56727773
new    ...       0.28253651    -475.56728131

__s__    ...       0.22502325

 ALPHA AFTER:   0.28253651465436996     
  Cycle:      9 Energy:      -475.567281  Gnorm:      0.004004  CPU:    0.048
 Line minimisation2
 ALPHA BEFORE:   0.28253651465436996     
  ** Opt : line minimisation
left   ...       0.00000000    -475.56728131
centre ...       0.07063413    -475.56728343
right  ...       0.14126826    -475.56728458

left   ...       0.00000000    -475.56728131
centre ...       0.07063413    -475.56728343
right  ...       0.14126826    -475.56728458
new    ...       0.18911112    -475.56728480

__s__    ...       0.04784286

 ALPHA AFTER:   0.18911111505718459     
  Cycle:     10 Energy:      -475.567285  Gnorm:      0.002727  CPU:    0.051
 Line minimisation2
 ALPHA BEFORE:   0.18911111505718459     
  ** Opt : line minimisation
left   ...       0.00000000    -475.56728480
centre ...       0.04727778    -475.56728550
right  ...       0.09455556    -475.56728597

left   ...       0.00000000    -475.56728480
centre ...       0.04727778    -475.56728550
right  ...       0.09455556    -475.56728597
new    ...       0.16980237    -475.56728626

__s__    ...       0.07524681

 ALPHA AFTER:   0.16980237079570473     
  Cycle:     11 Energy:      -475.567286  Gnorm:      0.003248  CPU:    0.054
 Perform trimming
 Line minimisation2
 ALPHA BEFORE:   0.16980237079570473     
  ** Opt : line minimisation
left   ...       0.00000000    -475.56728626
centre ...       0.04245059    -475.56728712
right  ...       0.08490119    -475.56728790

left   ...       0.00000000    -475.56728626
centre ...       0.04245059    -475.56728712
right  ...       0.08490119    -475.56728790
new    ...       0.51109192    -475.56729166

__s__    ...       0.42619073

 ALPHA AFTER:   0.51109191645411522     
  Cycle:     12 Energy:      -475.567292  Gnorm:      0.002185  CPU:    0.056
 Line minimisation2
 ALPHA BEFORE:   0.51109191645411522     
  ** Opt : line minimisation
left   ...       0.00000000    -475.56729166
centre ...       0.12777298    -475.56729294
right  ...       0.25554596    -475.56729397

left   ...       0.00000000    -475.56729166
centre ...       0.12777298    -475.56729294
right  ...       0.25554596    -475.56729397
new    ...       0.72329543    -475.56729564

__s__    ...       0.46774947

 ALPHA AFTER:   0.72329542558128523     
  Cycle:     13 Energy:      -475.567296  Gnorm:      0.002061  CPU:    0.059
 Line minimisation2
 ALPHA BEFORE:   0.72329542558128523     
  ** Opt : line minimisation
left   ...       0.00000000    -475.56729564
centre ...       0.18082386    -475.56729670
right  ...       0.36164771    -475.56729635

left   ...       0.00000000    -475.56729564
centre ...       0.18082386    -475.56729670
right  ...       0.36164771    -475.56729635
new    ...       0.22633022    -475.56729675

__s__    ...      -0.13531749

 ALPHA AFTER:   0.22633022259759583     
  Cycle:     14 Energy:      -475.567297  Gnorm:      0.002222  CPU:    0.062
 Line minimisation2
 ALPHA BEFORE:   0.22633022259759583     
  ** Opt : line minimisation
left   ...       0.00000000    -475.56729675
centre ...       0.05658256    -475.56729728
right  ...       0.11316511    -475.56729761

left   ...       0.00000000    -475.56729675
centre ...       0.05658256    -475.56729728
right  ...       0.11316511    -475.56729761
new    ...       0.17237674    -475.56729773

__s__    ...       0.05921163

 ALPHA AFTER:   0.17237673684552529     
  Cycle:     15 Energy:      -475.567298  Gnorm:      0.002276  CPU:    0.064
 Line minimisation2
 ALPHA BEFORE:   0.17237673684552529     
  ** Opt : line minimisation
left   ...       0.00000000    -475.56729773
centre ...       0.04309418    -475.56729822
right  ...       0.08618837    -475.56729866

left   ...       0.00000000    -475.56729773
centre ...       0.04309418    -475.56729822
right  ...       0.08618837    -475.56729866
new    ...       0.46365139    -475.56730049

__s__    ...       0.37746303

 ALPHA AFTER:   0.46365139358674567     
  Cycle:     16 Energy:      -475.567300  Gnorm:      0.001077  CPU:    0.067
 Line minimisation2
 ALPHA BEFORE:   0.46365139358674567     
  ** Opt : line minimisation
left   ...       0.00000000    -475.56730049
centre ...       0.11591285    -475.56730077
right  ...       0.23182570    -475.56730096

left   ...       0.00000000    -475.56730049
centre ...       0.11591285    -475.56730077
right  ...       0.23182570    -475.56730096
new    ...       0.46741581    -475.56730112

__s__    ...       0.23559011

 ALPHA AFTER:   0.46741581161210005     
  Cycle:     17 Energy:      -475.567301  Gnorm:      0.001203  CPU:    0.070
 Line minimisation2
 ALPHA BEFORE:   0.46741581161210005     
  ** Opt : line minimisation
left   ...       0.00000000    -475.56730112
centre ...       0.11685395    -475.56730144
right  ...       0.23370791    -475.56730163

left   ...       0.00000000    -475.56730112
centre ...       0.11685395    -475.56730144
right  ...       0.23370791    -475.56730163
new    ...       0.33449683    -475.56730168

__s__    ...       0.10078893

 ALPHA AFTER:   0.33449683386659412     
  Cycle:     18 Energy:      -475.567302  Gnorm:      0.001841  CPU:    0.072
 Perform trimming
 Line minimisation2
 ALPHA BEFORE:   0.33449683386659412     
  ** Opt : line minimisation
left   ...       0.00000000    -475.56730168
centre ...       0.08362421    -475.56730200
right  ...       0.16724842    -475.56730218

left   ...       0.00000000    -475.56730168
centre ...       0.08362421    -475.56730200
right  ...       0.16724842    -475.56730218
new    ...       0.22439254    -475.56730221

__s__    ...       0.05714412

 ALPHA AFTER:   0.22439253884276789     
  Cycle:     19 Energy:      -475.567302  Gnorm:      0.000878  CPU:    0.075
 Line minimisation2
 ALPHA BEFORE:   0.22439253884276789     
  ** Opt : line minimisation
left   ...       0.00000000    -475.56730221
centre ...       0.05609813    -475.56730230
right  ...       0.11219627    -475.56730238

left   ...       0.00000000    -475.56730221
centre ...       0.05609813    -475.56730230
right  ...       0.11219627    -475.56730238
new    ...       0.35604465    -475.56730253

__s__    ...       0.24384838

 ALPHA AFTER:   0.35604464659194612     
  Cycle:     20 Energy:      -475.567303  Gnorm:      0.001176  CPU:    0.077
 Perform trimming
 Line minimisation2
 ALPHA BEFORE:   0.35604464659194612     
  ** Opt : line minimisation
left   ...       0.00000000    -475.56730253
centre ...       0.08901116    -475.56730267
right  ...       0.17802232    -475.56730273

left   ...       0.00000000    -475.56730253
centre ...       0.08901116    -475.56730267
right  ...       0.17802232    -475.56730273
new    ...       0.19389267    -475.56730273

__s__    ...       0.01587035

 ALPHA AFTER:   0.19389267241856015     
  Cycle:     21 Energy:      -475.567303  Gnorm:      0.000853  CPU:    0.080
 Line minimisation2
 ALPHA BEFORE:   0.19389267241856015     
  ** Opt : line minimisation
left   ...       0.00000000    -475.56730273
centre ...       0.04847317    -475.56730281
right  ...       0.09694634    -475.56730287

left   ...       0.00000000    -475.56730273
centre ...       0.04847317    -475.56730281
right  ...       0.09694634    -475.56730287
new    ...       0.28891067    -475.56730298

__s__    ...       0.19196434

 ALPHA AFTER:   0.28891067493553596     
  Cycle:     22 Energy:      -475.567303  Gnorm:      0.000896  CPU:    0.083
 Perform trimming
 Line minimisation2
 ALPHA BEFORE:   0.28891067493553596     
  ** Opt : line minimisation
left   ...       0.00000000    -475.56730298
centre ...       0.07222767    -475.56730309
right  ...       0.14445534    -475.56730318

left   ...       0.00000000    -475.56730298
centre ...       0.07222767    -475.56730309
right  ...       0.14445534    -475.56730318
new    ...       0.34461968    -475.56730328

__s__    ...       0.20016434

 ALPHA AFTER:   0.34461968013440025     
  Cycle:     23 Energy:      -475.567303  Gnorm:      0.001519  CPU:    0.085
 Perform trimming
 Line minimisation2
 ALPHA BEFORE:   0.34461968013440025     
  ** Opt : line minimisation
left   ...       0.00000000    -475.56730328
centre ...       0.08615492    -475.56730349
right  ...       0.17230984    -475.56730368

left   ...       0.00000000    -475.56730328
centre ...       0.08615492    -475.56730349
right  ...       0.17230984    -475.56730368
new    ...       0.79505948    -475.56730433

__s__    ...       0.62274964

 ALPHA AFTER:   0.79505947926708576     
  Cycle:     24 Energy:      -475.567304  Gnorm:      0.001372  CPU:    0.088
 Line minimisation2
 ALPHA BEFORE:   0.79505947926708576     
  ** Opt : line minimisation
left   ...       0.00000000    -475.56730433
centre ...       0.19876487    -475.56730469
right  ...       0.39752974    -475.56730403

left   ...       0.00000000    -475.56730433
centre ...       0.19876487    -475.56730469
right  ...       0.39752974    -475.56730403
new    ...       0.16981966    -475.56730470

__s__    ...      -0.22771008

 ALPHA AFTER:   0.16981965727199164     
  Cycle:     25 Energy:      -475.567305  Gnorm:      0.001320  CPU:    0.091
 Line minimisation2
 ALPHA BEFORE:   0.16981965727199164     
  ** Opt : line minimisation
left   ...       0.00000000    -475.56730470
centre ...       0.04245491    -475.56730485
right  ...       0.08490983    -475.56730496

left   ...       0.00000000    -475.56730470
centre ...       0.04245491    -475.56730485
right  ...       0.08490983    -475.56730496
new    ...       0.17937483    -475.56730506

__s__    ...       0.09446500

 ALPHA AFTER:   0.17937483357788914     
  Cycle:     26 Energy:      -475.567305  Gnorm:      0.000931  CPU:    0.093
 Line minimisation2
 ALPHA BEFORE:   0.17937483357788914     
  ** Opt : line minimisation
left   ...       0.00000000    -475.56730506
centre ...       0.04484371    -475.56730514
right  ...       0.08968742    -475.56730522

left   ...       0.00000000    -475.56730506
centre ...       0.04484371    -475.56730514
right  ...       0.08968742    -475.56730522
new    ...       0.52488879    -475.56730558

__s__    ...       0.43520137

 ALPHA AFTER:   0.52488879176569569     
  Cycle:     27 Energy:      -475.567306  Gnorm:      0.000977  CPU:    0.096
 Line minimisation2
 ALPHA BEFORE:   0.52488879176569569     
  ** Opt : line minimisation
left   ...       0.00000000    -475.56730558
centre ...       0.13122220    -475.56730578
right  ...       0.26244440    -475.56730579

left   ...       0.00000000    -475.56730558
centre ...       0.13122220    -475.56730578
right  ...       0.26244440    -475.56730579
new    ...       0.20514770    -475.56730581

__s__    ...      -0.05729670

 ALPHA AFTER:   0.20514769513485470     
  Cycle:     28 Energy:      -475.567306  Gnorm:      0.001407  CPU:    0.099
 Perform trimming
 Line minimisation2
 ALPHA BEFORE:   0.20514769513485470     
  ** Opt : line minimisation
left   ...       0.00000000    -475.56730581
centre ...       0.05128692    -475.56730596
right  ...       0.10257385    -475.56730610

left   ...       0.00000000    -475.56730581
centre ...       0.05128692    -475.56730596
right  ...       0.10257385    -475.56730610
new    ...       0.63980108    -475.56730682

__s__    ...       0.53722724

 ALPHA AFTER:   0.63980108270564606     
  Cycle:     29 Energy:      -475.567307  Gnorm:      0.001321  CPU:    0.102
 Line minimisation2
 ALPHA BEFORE:   0.63980108270564606     
  ** Opt : line minimisation
left   ...       0.00000000    -475.56730682
centre ...       0.15995027    -475.56730716
right  ...       0.31990054    -475.56730691

left   ...       0.00000000    -475.56730682
centre ...       0.15995027    -475.56730716
right  ...       0.31990054    -475.56730691
new    ...       0.17294902    -475.56730717

__s__    ...      -0.14695153

 ALPHA AFTER:   0.17294901631530724     
  Cycle:     30 Energy:      -475.567307  Gnorm:      0.000646  CPU:    0.104
 Line minimisation2
 ALPHA BEFORE:   0.17294901631530724     
  ** Opt : line minimisation
left   ...       0.00000000    -475.56730717
centre ...       0.04323725    -475.56730720
right  ...       0.08647451    -475.56730723

left   ...       0.00000000    -475.56730717
centre ...       0.04323725    -475.56730720
right  ...       0.08647451    -475.56730723
new    ...       0.22477140    -475.56730727

__s__    ...       0.13829689

 ALPHA AFTER:   0.22477139780110378     
  Cycle:     31 Energy:      -475.567307  Gnorm:      0.000980  CPU:    0.107
 Perform trimming
 Line minimisation2
 ALPHA BEFORE:   0.22477139780110378     
  ** Opt : line minimisation
left   ...       0.00000000    -475.56730727
centre ...       0.05619285    -475.56730734
right  ...       0.11238570    -475.56730740

left   ...       0.00000000    -475.56730727
centre ...       0.05619285    -475.56730734
right  ...       0.11238570    -475.56730740
new    ...       0.74002223    -475.56730773

__s__    ...       0.62763653

 ALPHA AFTER:   0.74002223007619605     
  Cycle:     32 Energy:      -475.567308  Gnorm:      0.000642  CPU:    0.110
 Line minimisation2
 ALPHA BEFORE:   0.74002223007619605     
  ** Opt : line minimisation
left   ...       0.00000000    -475.56730773
centre ...       0.18500556    -475.56730787
right  ...       0.37001112    -475.56730794

left   ...       0.00000000    -475.56730773
centre ...       0.18500556    -475.56730787
right  ...       0.37001112    -475.56730794
new    ...       0.44480595    -475.56730794

__s__    ...       0.07479483

 ALPHA AFTER:   0.44480594507510862     
  Cycle:     33 Energy:      -475.567308  Gnorm:      0.000673  CPU:    0.112
 Line minimisation2
 ALPHA BEFORE:   0.44480594507510862     
  ** Opt : line minimisation
left   ...       0.00000000    -475.56730794
centre ...       0.11120149    -475.56730804
right  ...       0.22240297    -475.56730808

left   ...       0.00000000    -475.56730794
centre ...       0.11120149    -475.56730804
right  ...       0.22240297    -475.56730808
new    ...       0.28071849    -475.56730809

__s__    ...       0.05831552

 ALPHA AFTER:   0.28071849207291155     
  Cycle:     34 Energy:      -475.567308  Gnorm:      0.000921  CPU:    0.115
 Perform trimming
 Line minimisation2
 ALPHA BEFORE:   0.28071849207291155     
  ** Opt : line minimisation
left   ...       0.00000000    -475.56730809
centre ...       0.07017962    -475.56730818
right  ...       0.14035925    -475.56730823

left   ...       0.00000000    -475.56730809
centre ...       0.07017962    -475.56730818
right  ...       0.14035925    -475.56730823
new    ...       0.22410949    -475.56730825

__s__    ...       0.08375025

 ALPHA AFTER:   0.22410949449346720     
  Cycle:     35 Energy:      -475.567308  Gnorm:      0.000766  CPU:    0.118
 Line minimisation2
 ALPHA BEFORE:   0.22410949449346720     
  ** Opt : line minimisation
left   ...       0.00000000    -475.56730825
centre ...       0.05602737    -475.56730833
right  ...       0.11205475    -475.56730839

left   ...       0.00000000    -475.56730825
centre ...       0.05602737    -475.56730833
right  ...       0.11205475    -475.56730839
new    ...       0.86324819    -475.56730884

__s__    ...       0.75119345

 ALPHA AFTER:   0.86324819468908942     
  Cycle:     36 Energy:      -475.567309  Gnorm:      0.001251  CPU:    0.120
 Perform trimming
 Line minimisation2
 ALPHA BEFORE:   0.86324819468908942     
  ** Opt : line minimisation
left   ...       0.00000000    -475.56730884
centre ...       0.21581205    -475.56730907
right  ...       0.43162410    -475.56730908

left   ...       0.00000000    -475.56730884
centre ...       0.21581205    -475.56730907
right  ...       0.43162410    -475.56730908
new    ...       0.33803199    -475.56730910

__s__    ...      -0.09359211

 ALPHA AFTER:   0.33803198638221987     
  Cycle:     37 Energy:      -475.567309  Gnorm:      0.001092  CPU:    0.123
 Line minimisation2
 ALPHA BEFORE:   0.33803198638221987     
  ** Opt : line minimisation
left   ...       0.00000000    -475.56730910
centre ...       0.08450800    -475.56730927
right  ...       0.16901599    -475.56730932

left   ...       0.00000000    -475.56730910
centre ...       0.08450800    -475.56730927
right  ...       0.16901599    -475.56730932
new    ...       0.15982772    -475.56730932

__s__    ...      -0.00918828

 ALPHA AFTER:   0.15982771735054432     
  Cycle:     38 Energy:      -475.567309  Gnorm:      0.000806  CPU:    0.125
 Line minimisation2
 ALPHA BEFORE:   0.15982771735054432     
  ** Opt : line minimisation
left   ...       0.00000000    -475.56730932
centre ...       0.03995693    -475.56730937
right  ...       0.07991386    -475.56730942

left   ...       0.00000000    -475.56730932
centre ...       0.03995693    -475.56730937
right  ...       0.07991386    -475.56730942
new    ...       0.20516942    -475.56730947

__s__    ...       0.12525556

 ALPHA AFTER:   0.20516941951166701     
  Cycle:     39 Energy:      -475.567309  Gnorm:      0.000822  CPU:    0.128
 Line minimisation2
 ALPHA BEFORE:   0.20516941951166701     
  ** Opt : line minimisation
left   ...       0.00000000    -475.56730947
centre ...       0.05129235    -475.56730954
right  ...       0.10258471    -475.56730957

left   ...       0.00000000    -475.56730947
centre ...       0.05129235    -475.56730954
right  ...       0.10258471    -475.56730957
new    ...       0.14327552    -475.56730958

__s__    ...       0.04069081

 ALPHA AFTER:   0.14327551883815576     
  Cycle:     40 Energy:      -475.567310  Gnorm:      0.000572  CPU:    0.131
 Line minimisation2
 ALPHA BEFORE:   0.14327551883815576     
  ** Opt : line minimisation
left   ...       0.00000000    -475.56730958
centre ...       0.03581888    -475.56730961
right  ...       0.07163776    -475.56730962

left   ...       0.00000000    -475.56730958
centre ...       0.03581888    -475.56730961
right  ...       0.07163776    -475.56730962
new    ...       0.12616289    -475.56730963

__s__    ...       0.05452513

 ALPHA AFTER:   0.12616288642525231     
  Cycle:     41 Energy:      -475.567310  Gnorm:      0.000453  CPU:    0.133
 Line minimisation2
 ALPHA BEFORE:   0.12616288642525231     
  ** Opt : line minimisation
left   ...       0.00000000    -475.56730963
centre ...       0.03154072    -475.56730965
right  ...       0.06308144    -475.56730966

left   ...       0.00000000    -475.56730963
centre ...       0.03154072    -475.56730965
right  ...       0.06308144    -475.56730966
new    ...       1.06308144    -475.56730993

__s__    ...       1.00000000

 ALPHA AFTER:    1.0630814432126261     
  Cycle:     42 Energy:      -475.567310  Gnorm:      0.000636  CPU:    0.136
 Perform trimming
 Line minimisation2
 ALPHA BEFORE:    1.0630814432126261     
  ** Opt : line minimisation
left   ...       0.00000000    -475.56730993
centre ...       0.26577036    -475.56731009
right  ...       0.53154072    -475.56731016

left   ...       0.00000000    -475.56730993
centre ...       0.26577036    -475.56731009
right  ...       0.53154072    -475.56731016
new    ...       0.63833060    -475.56731017

__s__    ...       0.10678988

 ALPHA AFTER:   0.63833060271331521     
  Cycle:     43 Energy:      -475.567310  Gnorm:      0.000672  CPU:    0.139
 Perform trimming
 Line minimisation2
 ALPHA BEFORE:   0.63833060271331521     
  ** Opt : line minimisation
left   ...       0.00000000    -475.56731017
centre ...       0.15958265    -475.56731029
right  ...       0.31916530    -475.56731033

left   ...       0.00000000    -475.56731017
centre ...       0.15958265    -475.56731029
right  ...       0.31916530    -475.56731033
new    ...       0.32044797    -475.56731033

__s__    ...       0.00128267

 ALPHA AFTER:   0.32044797040508671     
  Cycle:     44 Energy:      -475.567310  Gnorm:      0.001147  CPU:    0.141
 Perform trimming
 Line minimisation2
 ALPHA BEFORE:   0.32044797040508671     
  ** Opt : line minimisation
left   ...       0.00000000    -475.56731033
centre ...       0.08011199    -475.56731043
right  ...       0.16022399    -475.56731052

left   ...       0.00000000    -475.56731033
centre ...       0.08011199    -475.56731043
right  ...       0.16022399    -475.56731052
new    ...       0.50544087    -475.56731069

__s__    ...       0.34521688

 ALPHA AFTER:   0.50544086988533032     
  Cycle:     45 Energy:      -475.567311  Gnorm:      0.000818  CPU:    0.144
 Line minimisation2
 ALPHA BEFORE:   0.50544086988533032     
  ** Opt : line minimisation
left   ...       0.00000000    -475.56731069
centre ...       0.12636022    -475.56731086
right  ...       0.25272043    -475.56731097

left   ...       0.00000000    -475.56731069
centre ...       0.12636022    -475.56731086
right  ...       0.25272043    -475.56731097
new    ...       0.44745354    -475.56731104

__s__    ...       0.19473311

 ALPHA AFTER:   0.44745354339040688     
  Cycle:     46 Energy:      -475.567311  Gnorm:      0.000821  CPU:    0.147
 Line minimisation2
 ALPHA BEFORE:   0.44745354339040688     
  ** Opt : line minimisation
left   ...       0.00000000    -475.56731104
centre ...       0.11186339    -475.56731118
right  ...       0.22372677    -475.56731127

left   ...       0.00000000    -475.56731104
centre ...       0.11186339    -475.56731118
right  ...       0.22372677    -475.56731127
new    ...       0.33115180    -475.56731129

__s__    ...       0.10742502

 ALPHA AFTER:   0.33115179614073664     
  Cycle:     47 Energy:      -475.567311  Gnorm:      0.001150  CPU:    0.149
 Perform trimming
 Line minimisation2
 ALPHA BEFORE:   0.33115179614073664     
  ** Opt : line minimisation
left   ...       0.00000000    -475.56731129
centre ...       0.08278795    -475.56731144
right  ...       0.16557590    -475.56731150

left   ...       0.00000000    -475.56731129
centre ...       0.08278795    -475.56731144
right  ...       0.16557590    -475.56731150
new    ...       0.18840358    -475.56731151

__s__    ...       0.02282768

 ALPHA AFTER:   0.18840358047015959     
  Cycle:     48 Energy:      -475.567312  Gnorm:      0.000816  CPU:    0.152
 Line minimisation2
 ALPHA BEFORE:   0.18840358047015959     
  ** Opt : line minimisation
left   ...       0.00000000    -475.56731151
centre ...       0.04710090    -475.56731157
right  ...       0.09420179    -475.56731164

left   ...       0.00000000    -475.56731151
centre ...       0.04710090    -475.56731157
right  ...       0.09420179    -475.56731164
new    ...       0.54526349    -475.56731192

__s__    ...       0.45106170

 ALPHA AFTER:   0.54526349200310398     
  Cycle:     49 Energy:      -475.567312  Gnorm:      0.001079  CPU:    0.154
 Line minimisation2
 ALPHA BEFORE:   0.54526349200310398     
  ** Opt : line minimisation
left   ...       0.00000000    -475.56731192
centre ...       0.13631587    -475.56731206
right  ...       0.27263175    -475.56731175

left   ...       0.00000000    -475.56731192
centre ...       0.13631587    -475.56731206
right  ...       0.27263175    -475.56731175
new    ...       0.11020401    -475.56731207

__s__    ...      -0.16242773

 ALPHA AFTER:   0.11020401493997642     
  Cycle:     50 Energy:      -475.567312  Gnorm:      0.000735  CPU:    0.157
 Line minimisation2
 ALPHA BEFORE:   0.11020401493997642     
  ** Opt : line minimisation
left   ...       0.00000000    -475.56731207
centre ...       0.02755100    -475.56731210
right  ...       0.05510201    -475.56731213

left   ...       0.00000000    -475.56731207
centre ...       0.02755100    -475.56731210
right  ...       0.05510201    -475.56731213
new    ...       0.14136455    -475.56731216

__s__    ...       0.08626254

 ALPHA AFTER:   0.14136455119094357     


  **** Optimisation achieved ****


  Final energy =    -475.56731216 eV
  Final Gnorm  =       0.00041271

  Components of energy : 

--------------------------------------------------------------------------------
  Interatomic potentials     =          65.00883304 eV    
  Monopole - monopole (real) =        -237.15309216 eV    
  Monopole - monopole (recip)=        -303.42305304 eV    
  Monopole - monopole (total)=        -540.57614520 eV    
--------------------------------------------------------------------------------
  Total lattice energy       =        -475.56731216 eV    
--------------------------------------------------------------------------------
  Total lattice energy       =          -45884.9759 kJ/(mole unit cells)
--------------------------------------------------------------------------------

  Final fractional coordinates of atoms :

--------------------------------------------------------------------------------
   No.  Atomic        x           y          z          Radius
        Label       (Frac)      (Frac)     (Frac)       (Angs) 
--------------------------------------------------------------------------------
     1  Sr    c     0.999960    0.999870    0.000550    0.000000
     2  Ti    c     0.166627    0.499907    0.500275    0.000000
     3  O     c     0.999959    0.499908    0.500270    0.000000
     4  O     c     0.166626    0.999909    0.500256    0.000000
     5  O     c     0.166626    0.499910    0.000257    0.000000
     6  Sr    c     0.333293    0.999914    0.000200    0.000000
     7  Ti    c     0.499961    0.499917    0.500181    0.000000
     8  O     c     0.333291    0.499899    0.500192    0.000000
     9  O     c     0.499960    0.999917    0.500167    0.000000
    10  O     c     0.499960    0.499930    0.000180    0.000000
    11  Sr    c     0.666628    0.999914    0.000199    0.000000
    12  Ti    c     0.833294    0.499906    0.500276    0.000000
    13  O     c     0.666626    0.499895    0.500211    0.000000
    14  O     c     0.833294    0.999909    0.500248    0.000000
    15  O     c     0.833294    0.499912    0.000259    0.000000
--------------------------------------------------------------------------------

  Final Cartesian lattice vectors (Angstroms) :

       11.869508    0.000000    0.000000
        0.000000    3.956501   -0.000000
        0.000000   -0.000000    3.956502


  Final cell parameters and derivatives :

--------------------------------------------------------------------------------
       a           11.869508 Angstrom     dE/de1(xx)     0.002198 eV/strain
       b            3.956501 Angstrom     dE/de2(yy)     0.002110 eV/strain
       c            3.956502 Angstrom     dE/de3(zz)     0.002161 eV/strain
       alpha       90.000000 Degrees      dE/de4(yz)     0.000001 eV/strain
       beta        90.000000 Degrees      dE/de5(xz)     0.000001 eV/strain
       gamma       90.000000 Degrees      dE/de6(xy)     0.000000 eV/strain
--------------------------------------------------------------------------------

  Primitive cell volume =           185.804156 Angs**3

  Density of cell =      4.919918 g/cm**3

  Non-primitive cell volume =           185.804156 Angs**3


  Final internal derivatives :

--------------------------------------------------------------------------------
   No.  Atomic          a             b             c           Radius
        Label          (eV)          (eV)          (eV)        (eV/Angs)
--------------------------------------------------------------------------------
      1 Sr    c       0.000000      0.000000      0.000000      0.000000
      2 Ti    c       0.004633      0.001680     -0.000568      0.000000
      3 O     c      -0.003222     -0.000037      0.001888      0.000000
      4 O     c      -0.000394      0.001689     -0.003814      0.000000
      5 O     c      -0.000559      0.000010     -0.000822      0.000000
      6 Sr    c      -0.000112      0.000035     -0.003048      0.000000
      7 Ti    c       0.003813      0.001466     -0.001810      0.000000
      8 O     c      -0.008928     -0.003089     -0.008861      0.000000
      9 O     c       0.001864      0.001423     -0.002074      0.000000
     10 O     c       0.001702      0.001879     -0.001662      0.000000
     11 Sr    c       0.001138      0.000075     -0.003100      0.000000
     12 Ti    c       0.000409      0.001532     -0.000372      0.000000
     13 O     c      -0.003527     -0.004100     -0.004294      0.000000
     14 O     c       0.001992      0.001652     -0.005799      0.000000
     15 O     c       0.001854      0.000466     -0.000341      0.000000
--------------------------------------------------------------------------------
  Maximum abs         0.008928      0.004100      0.008861      0.000000
--------------------------------------------------------------------------------


  Time to end of optimisation =       0.1598 seconds

 Exiting ------OPTIONS------

  Peak dynamic memory used =       0.55 MB 


  Timing analysis for GULP :

--------------------------------------------------------------------------------
  Task / Subroutine                                          Time (Seconds)
--------------------------------------------------------------------------------
  Calculation of reciprocal space energy and derivatives          0.0179
  Calculation of real space energy and derivatives                0.1329
  Global summation overhead                                       0.0001
--------------------------------------------------------------------------------
  Total CPU time                                                  0.1598
--------------------------------------------------------------------------------


  Job Finished at 11:51.24  4th February   2020                               

