********************************************************************************
*                       GENERAL UTILITY LATTICE PROGRAM                        *
*                                 Julian Gale                                  *
*                       Curtin Institute for Computation                       *
*                           Department of Chemistry                            *
*                    Curtin University, Western Australia                      *
********************************************************************************
* Version = 5.1.1 * Last modified =  25th August 2019                          *
********************************************************************************
*  optimise     - perform optimisation run                                     *
*  conp         - constant pressure calculation                                *
*  nosymmetry   - turn off symmetry after initial structure generation         *
*  full         - generate full unit cell when symmetry is removed             *
*  conjugate    - use conjugate gradients minimiser                            *
********************************************************************************
* ASE calculation                                                              *
********************************************************************************


  Job Started  at 13:26.37 21st February   2020                               

  Number of CPUs =     1


  Total number of configurations input =      1

********************************************************************************
*  Input for Configuration =   1                                               *
********************************************************************************

  Formula = Sr3Ti3O9                                                    

  Number of irreducible atoms/shells =      15


  Total number atoms/shells =      15

  Dimensionality = 3               :  Bulk   



  Cartesian lattice vectors (Angstroms) :

       12.000000    0.000000    0.000000
        0.000000    4.000000    0.000000
        0.000000    0.000000    4.000000

  Cell parameters (Angstroms/Degrees):

  a =      12.0000    alpha =  90.0000
  b =       4.0000    beta  =  90.0000
  c =       4.0000    gamma =  90.0000

  Initial cell volume =         192.000000 Angs**3

  Temperature of configuration =  0.000     K 

  Pressure of configuration =         0.000 GPa 

  Fractional coordinates of asymmetric unit :

--------------------------------------------------------------------------------
   No.  Atomic       x           y          z         Charge      Occupancy
        Label      (Frac)      (Frac)     (Frac)        (e)         (Frac)  
--------------------------------------------------------------------------------
      1 Sr    c    0.999960    0.999870    0.000550     2.00000    1.000000    
      2 Ti    c    0.166670 *  0.500120 *  0.500000 *   4.00000    1.000000    
      3 O     c    0.999860 *  0.499900 *  0.500580 *  -2.00000    1.000000    
      4 O     c    0.166680 *  0.000170 *  0.499980 *  -2.00000    1.000000    
      5 O     c    0.166710 *  0.500200 *  0.999660 *  -2.00000    1.000000    
      6 Sr    c    0.333470 *  0.000350 *  0.000010 *   2.00000    1.000000    
      7 Ti    c    0.500270 *  0.499340 *  0.499380 *   4.00000    1.000000    
      8 O     c    0.333310 *  0.499790 *  0.499620 *  -2.00000    1.000000    
      9 O     c    0.499980 *  0.999440 *  0.500200 *  -2.00000    1.000000    
     10 O     c    0.500030 *  0.500400 *  0.000150 *  -2.00000    1.000000    
     11 Sr    c    0.666540 *  0.999940 *  0.999970 *   2.00000    1.000000    
     12 Ti    c    0.833350 *  0.499710 *  0.499670 *   4.00000    1.000000    
     13 O     c    0.666530 *  0.499700 *  0.500090 *  -2.00000    1.000000    
     14 O     c    0.833150 *  0.000100 *  0.500050 *  -2.00000    1.000000    
     15 O     c    0.833380 *  0.500160 *  0.000120 *  -2.00000    1.000000    
--------------------------------------------------------------------------------



********************************************************************************
*  General input information                                                   *
********************************************************************************

  Species output for all configurations : 

--------------------------------------------------------------------------------
  Species    Type    Atomic    Atomic    Charge       Radii (Angs)     Library
                     Number     Mass       (e)     Cova   Ionic  VDW   Symbol
--------------------------------------------------------------------------------
    Sr       Core       38      87.62   2.000000   1.120  0.000  1.670          
    Ti       Core       22      47.88   4.000000   1.470  0.000  2.190          
    O        Core        8      16.00  -2.000000   0.730  0.000  1.360          
--------------------------------------------------------------------------------


  Lattice summation method               =    Ewald          (3-D)
                                         =    Parry          (2-D)
                                         =    Saunders et al (1-D)
  Accuracy factor for lattice sums       =   12.000


  Time limit = Infinity

  Maximum range for interatomic potentials =    100000.000000 Angstroms

  General interatomic potentials :

--------------------------------------------------------------------------------
Atom  Types   Potential      Parameter       Value         Units   Cutoffs(Ang)
  1     2                                                            Min /  Max 
--------------------------------------------------------------------------------
O    c Sr   c Buckingham    Buckingham A     1952.3900    eV        0.000 10.000
                            Buckingham rho  0.33685000    Ang       
                            Buckingham C     19.220000    eV*Ang^6  
--------------------------------------------------------------------------------
O    c Ti   c Buckingham    Buckingham A     4590.7279    eV        0.000 10.000
                            Buckingham rho  0.26100000    Ang       
                            Buckingham C     0.0000000    eV*Ang^6  
--------------------------------------------------------------------------------
O    c O    c Buckingham    Buckingham A     1388.7700    eV        0.000 10.000
                            Buckingham rho  0.36262000    Ang       
                            Buckingham C     175.00000    eV*Ang^6  
--------------------------------------------------------------------------------
 Calling ------OPTIONS------

********************************************************************************
*  Output for configuration   1                                                *
********************************************************************************


  Components of energy : 

--------------------------------------------------------------------------------
  Interatomic potentials     =          59.32156790 eV    
  Monopole - monopole (real) =        -234.57439053 eV    
  Monopole - monopole (recip)=        -300.12335562 eV    
  Monopole - monopole (total)=        -534.69774615 eV    
--------------------------------------------------------------------------------
  Total lattice energy       =        -475.37617825 eV    
--------------------------------------------------------------------------------
  Total lattice energy       =          -45866.5344 kJ/(mole unit cells)
--------------------------------------------------------------------------------


  Number of variables =       48

  Maximum number of calculations  =          1000
  Maximum Hessian update interval =            10
  Maximum step size               =   1.000000000
  Maximum parameter tolerance     =   0.000010000
  Maximum function  tolerance     =   0.000010000
  Maximum gradient  tolerance     =   0.001000000
  Maximum gradient  component     =   0.010000000

  Cell parameters to be optimised using strains

  Conjugate gradient optimiser to be used

  Lower half triangular hessian to be used

  Start of bulk optimisation :

  Cycle:      0 Energy:      -475.376178  Gnorm:      0.418174  CPU:    0.011
 ALPHA BEFORE:    1.0000000000000000     
 XC BEFORE:   0.16666999999995369     
  ** Opt : line minimisation
left   ...       0.00000000    -475.37617825
centre ...       0.25000000    -475.46049989
right  ...       0.50000000    -475.51142990

left   ...       0.00000000    -475.37617825
centre ...       0.25000000    -475.46049989
right  ...       0.50000000    -475.51142990
new    ...       0.75630828    -475.52804166

__s__    ...       0.25630828

 ALPHA AFTER:   0.75630828475232981     
 XC AFTER:   0.16734824287970815     
 SANITY CHECK:   0.75630828475231804     
 DIRECTION dim            1  value    8.9678097335212418E-004
 DIRECTION dim            2  value   -1.9631933566550639E-005
 DIRECTION dim            3  value    4.4632341123896046E-005
 DIRECTION dim            4  value    2.5669570421654693E-004
 DIRECTION dim            5  value    2.4528983753954359E-005
 DIRECTION dim            6  value   -2.1468565893177885E-004
 DIRECTION dim            7  value   -5.8860503624745433E-004
 DIRECTION dim            8  value   -5.3037826352994157E-005
 DIRECTION dim            9  value   -7.6573945907180356E-005
 DIRECTION dim           10  value   -6.1911043734131179E-004
 DIRECTION dim           11  value    4.9125870974388455E-006
 DIRECTION dim           12  value    1.8183151209948752E-004
 DIRECTION dim           13  value   -1.9238397328060031E-004
 DIRECTION dim           14  value   -8.1431901536455041E-005
 DIRECTION dim           15  value   -4.0425813582024830E-005
 DIRECTION dim           16  value   -2.3291929310889966E-003
 DIRECTION dim           17  value    3.4506190915601200E-004
 DIRECTION dim           18  value    3.2074368820717654E-004
 DIRECTION dim           19  value    3.5111605195874672E-004
 DIRECTION dim           20  value   -5.9522121275175805E-005
 DIRECTION dim           21  value    1.6725424907282682E-005
 DIRECTION dim           22  value    8.1439682223237084E-004
 DIRECTION dim           23  value    2.5958111369755999E-004
 DIRECTION dim           24  value   -1.2153902073060509E-004
 DIRECTION dim           25  value    7.4405416932482192E-004
 DIRECTION dim           26  value   -3.0949786669361612E-004
 DIRECTION dim           27  value   -7.7379787420884077E-005
 DIRECTION dim           28  value    1.9018527590412631E-004
 DIRECTION dim           29  value   -5.9458241613868966E-005
 DIRECTION dim           30  value   -5.4200359948143316E-005
 DIRECTION dim           31  value   -1.1465698567004157E-004
 DIRECTION dim           32  value    1.3489626146749890E-004
 DIRECTION dim           33  value    2.7325042727705586E-004
 DIRECTION dim           34  value    5.5295355395262511E-004
 DIRECTION dim           35  value   -7.2391254338170823E-005
 DIRECTION dim           36  value   -9.5031104046485666E-005
 DIRECTION dim           37  value    9.9583363098301926E-005
 DIRECTION dim           38  value   -6.2323892858654029E-005
 DIRECTION dim           39  value   -8.3598025995352973E-005
 DIRECTION dim           40  value   -3.2155726721774087E-004
 DIRECTION dim           41  value   -5.9527843308551674E-005
 DIRECTION dim           42  value    2.2448245876471387E-005
 DIRECTION dim           43  value   -1.1449913523411176E-002
 DIRECTION dim           44  value   -1.1452962036541604E-002
 DIRECTION dim           45  value   -1.1450831799189499E-002
 DIRECTION dim           46  value   -9.5193325056853174E-009
 DIRECTION dim           47  value    4.1722032401602439E-008
 DIRECTION dim           48  value    5.9186274454277460E-008
  Cycle:      1 Energy:      -475.528042  Gnorm:      0.671276  CPU:    0.019
 Perform trimming
 ALPHA BEFORE:   0.75630828475232981     
 XC BEFORE:   0.16734824287970815     
  ** Opt : line minimisation
left   ...       0.00000000    -475.52804166
centre ...       0.18907707    -475.56350110
right  ...       0.37815414    -475.47732340

left   ...       0.00000000    -475.52804166
centre ...       0.18907707    -475.56350110
right  ...       0.37815414    -475.47732340
new    ...       0.14965794    -475.56605188

__s__    ...      -0.22849621

left   ...       0.00000000    -475.52804166
centre ...       0.14965794    -475.56605188
right  ...       0.18907707    -475.56350110
new    ...       0.15017166    -475.56605253

__s__    ...       0.00051373

 ALPHA AFTER:   0.15017166294178641     
 XC AFTER:   0.16645020357875662     
 SANITY CHECK:   0.15017166294178569     
 DIRECTION dim            1  value   -5.9800849465165571E-003
 DIRECTION dim            2  value   -3.6053886627783286E-005
 DIRECTION dim            3  value    5.4179905842491719E-005
 DIRECTION dim            4  value    1.3249019478665195E-003
 DIRECTION dim            5  value    4.2053661401050321E-005
 DIRECTION dim            6  value   -3.3847321460366876E-004
 DIRECTION dim            7  value    2.9061495826722258E-003
 DIRECTION dim            8  value   -8.9184184574814205E-005
 DIRECTION dim            9  value   -1.0833606170951235E-004
 DIRECTION dim           10  value    2.8568889173547223E-003
 DIRECTION dim           11  value    5.1746402706531794E-006
 DIRECTION dim           12  value    2.8529131138598971E-004
 DIRECTION dim           13  value   -8.3548955316976723E-005
 DIRECTION dim           14  value   -1.3291469713032727E-004
 DIRECTION dim           15  value   -6.1312012786579357E-005
 DIRECTION dim           16  value    7.7996159517966287E-003
 DIRECTION dim           17  value    5.2495024037921083E-004
 DIRECTION dim           18  value    5.0372459707511167E-004
 DIRECTION dim           19  value   -5.2972638056732234E-004
 DIRECTION dim           20  value   -7.5230307677912983E-005
 DIRECTION dim           21  value    4.8334378593013915E-005
 DIRECTION dim           22  value   -3.7815984361745242E-003
 DIRECTION dim           23  value    3.9467539346839576E-004
 DIRECTION dim           24  value   -1.8523670747417392E-004
 DIRECTION dim           25  value   -3.8722929238308341E-003
 DIRECTION dim           26  value   -4.7509204738166910E-004
 DIRECTION dim           27  value   -1.4327697360457675E-004
 DIRECTION dim           28  value    1.0038777388629032E-003
 DIRECTION dim           29  value   -8.8895213916236458E-005
 DIRECTION dim           30  value   -7.8958065832762837E-005
 DIRECTION dim           31  value   -1.4917435524506378E-003
 DIRECTION dim           32  value    2.0978222651229871E-004
 DIRECTION dim           33  value    4.2143755132463372E-004
 DIRECTION dim           34  value   -8.6037975823093841E-004
 DIRECTION dim           35  value   -9.1379151620293503E-005
 DIRECTION dim           36  value   -1.3678055354692851E-004
 DIRECTION dim           37  value    1.0618773891401211E-003
 DIRECTION dim           38  value   -1.1141691959811316E-004
 DIRECTION dim           39  value   -1.1407838075341179E-004
 DIRECTION dim           40  value    6.0356783172330216E-004
 DIRECTION dim           41  value   -9.3214204525004726E-005
 DIRECTION dim           42  value    1.5446733597707182E-005
 DIRECTION dim           43  value   -1.5863023931165079E-002
 DIRECTION dim           44  value   -1.5866050426865057E-002
 DIRECTION dim           45  value   -1.5863114347165370E-002
 DIRECTION dim           46  value   -1.2187273272590619E-008
 DIRECTION dim           47  value   -2.5539919887132725E-007
 DIRECTION dim           48  value   -3.7523057160277036E-007
  Cycle:      2 Energy:      -475.566053  Gnorm:      0.073696  CPU:    0.026
 ALPHA BEFORE:   0.15017166294178641     
 XC BEFORE:   0.16645020357875662     
  ** Opt : line minimisation
left   ...       0.00000000    -475.56605253
centre ...       0.03754292    -475.56647153
right  ...       0.07508583    -475.56678951

left   ...       0.00000000    -475.56605253
centre ...       0.03754292    -475.56647153
right  ...       0.07508583    -475.56678951
new    ...       0.17448881    -475.56714420

__s__    ...       0.09940298

 ALPHA AFTER:   0.17448880920508728     
 XC AFTER:   0.16666126904948173     
 SANITY CHECK:   0.17448880920507204     
 DIRECTION dim            1  value    1.2096218186522694E-003
 DIRECTION dim            2  value   -2.2672287781891940E-005
 DIRECTION dim            3  value   -1.8392522709698665E-005
 DIRECTION dim            4  value   -1.5603753029267272E-003
 DIRECTION dim            5  value    1.8864229141959551E-005
 DIRECTION dim            6  value   -9.4509940585095337E-005
 DIRECTION dim            7  value    1.5616378156897365E-005
 DIRECTION dim            8  value   -3.7145089257834025E-005
 DIRECTION dim            9  value   -1.5689712042770275E-006
 DIRECTION dim           10  value    2.4436599749011353E-006
 DIRECTION dim           11  value   -4.7198518020435652E-006
 DIRECTION dim           12  value    7.2938195904545555E-005
 DIRECTION dim           13  value   -1.4282203340316247E-004
 DIRECTION dim           14  value   -4.6736153888031313E-005
 DIRECTION dim           15  value   -1.1025259519039632E-005
 DIRECTION dim           16  value    1.9085547312743033E-003
 DIRECTION dim           17  value    1.0326717649403939E-004
 DIRECTION dim           18  value    1.3202341047277049E-004
 DIRECTION dim           19  value   -9.6508689257728680E-004
 DIRECTION dim           20  value    2.1469404326980185E-005
 DIRECTION dim           21  value    6.3844244376508972E-005
 DIRECTION dim           22  value   -3.2188148561328113E-004
 DIRECTION dim           23  value    7.7366277427408484E-005
 DIRECTION dim           24  value   -3.8043225098918382E-005
 DIRECTION dim           25  value   -3.0239700267349780E-004
 DIRECTION dim           26  value   -1.0329688130076856E-004
 DIRECTION dim           27  value   -8.2728242533783650E-005
 DIRECTION dim           28  value   -7.0972276330170123E-004
 DIRECTION dim           29  value   -1.4447455515568139E-005
 DIRECTION dim           30  value   -7.6273309382173309E-006
 DIRECTION dim           31  value    1.5113079683139641E-003
 DIRECTION dim           32  value    4.9691083530257881E-005
 DIRECTION dim           33  value    9.3809665929371890E-005
 DIRECTION dim           34  value   -6.9407833699533191E-004
 DIRECTION dim           35  value    2.6274419740163423E-005
 DIRECTION dim           36  value   -9.5153216227223642E-006
 DIRECTION dim           37  value   -1.2469933010123818E-004
 DIRECTION dim           38  value   -5.7305624764949344E-005
 DIRECTION dim           39  value    8.1330522608794330E-006
 DIRECTION dim           40  value    1.7713862279530518E-004
 DIRECTION dim           41  value   -2.5587072538546995E-005
 DIRECTION dim           42  value   -3.7163562813620886E-005
 DIRECTION dim           43  value    5.0283926100086289E-004
 DIRECTION dim           44  value    4.9150602228820726E-004
 DIRECTION dim           45  value    4.9151157861750550E-004
 DIRECTION dim           46  value    2.7844176984409998E-009
 DIRECTION dim           47  value   -4.2496848230589378E-008
 DIRECTION dim           48  value   -3.1425761275272618E-008
  Cycle:      3 Energy:      -475.567144  Gnorm:      0.016609  CPU:    0.031
 ALPHA BEFORE:   0.17448880920508728     
 XC BEFORE:   0.16666126904948173     
  ** Opt : line minimisation
left   ...       0.00000000    -475.56714420
centre ...       0.04362220    -475.56716532
right  ...       0.08724440    -475.56717311

left   ...       0.00000000    -475.56714420
centre ...       0.04362220    -475.56716532
right  ...       0.08724440    -475.56717311
new    ...       0.09095375    -475.56717316

__s__    ...       0.00370935

 ALPHA AFTER:    9.0953754107018975E-002
 XC AFTER:   0.16668425861838729     
 SANITY CHECK:    9.0953754107077719E-002
 DIRECTION dim            1  value    2.5276107766258340E-004
 DIRECTION dim            2  value   -2.3714823648212785E-005
 DIRECTION dim            3  value   -1.6729227211405017E-005
 DIRECTION dim            4  value   -1.3700624798359751E-004
 DIRECTION dim            5  value    1.9029102509258054E-005
 DIRECTION dim            6  value   -1.0120484730248274E-004
 DIRECTION dim            7  value   -1.3517911427455014E-004
 DIRECTION dim            8  value   -3.8233757493517223E-005
 DIRECTION dim            9  value   -1.2374865696522432E-006
 DIRECTION dim           10  value   -1.4097763710448029E-004
 DIRECTION dim           11  value   -6.7261393457208189E-006
 DIRECTION dim           12  value    7.5344401724497650E-005
 DIRECTION dim           13  value    6.7911336375965433E-005
 DIRECTION dim           14  value   -5.0203227703032455E-005
 DIRECTION dim           15  value   -1.1434857452367341E-005
 DIRECTION dim           16  value   -3.0199475288521444E-004
 DIRECTION dim           17  value    1.0908041492235494E-004
 DIRECTION dim           18  value    1.3644445408716920E-004
 DIRECTION dim           19  value   -1.0969989739285541E-004
 DIRECTION dim           20  value    2.3378143131744886E-005
 DIRECTION dim           21  value    6.7983351750361277E-005
 DIRECTION dim           22  value    2.5583785898858048E-004
 DIRECTION dim           23  value    8.2068212402247470E-005
 DIRECTION dim           24  value   -4.1805190984382880E-005
 DIRECTION dim           25  value    2.7300626813174468E-004
 DIRECTION dim           26  value   -1.0931247374524694E-004
 DIRECTION dim           27  value   -8.1888200301294322E-005
 DIRECTION dim           28  value   -1.8661270148498290E-004
 DIRECTION dim           29  value   -1.5118416927886118E-005
 DIRECTION dim           30  value   -7.5121878399642067E-006
 DIRECTION dim           31  value    2.7404757255856818E-004
 DIRECTION dim           32  value    5.1084430394549238E-005
 DIRECTION dim           33  value    9.7528252384883099E-005
 DIRECTION dim           34  value   -2.1692179486430750E-004
 DIRECTION dim           35  value    2.8632985905559974E-005
 DIRECTION dim           36  value   -1.0845231650913963E-005
 DIRECTION dim           37  value   -1.0459661040133580E-004
 DIRECTION dim           38  value   -5.7581107619515834E-005
 DIRECTION dim           39  value    8.3149204406002459E-006
 DIRECTION dim           40  value    1.1004331249350297E-004
 DIRECTION dim           41  value   -2.8660826068654429E-005
 DIRECTION dim           42  value   -3.5940167486335928E-005
 DIRECTION dim           43  value    1.2146622761417326E-004
 DIRECTION dim           44  value    1.2195595027215154E-004
 DIRECTION dim           45  value    1.2171616190691608E-004
 DIRECTION dim           46  value    2.3359950538825400E-009
 DIRECTION dim           47  value   -1.6204716871131148E-008
 DIRECTION dim           48  value    3.7530532057413882E-008
  Cycle:      4 Energy:      -475.567173  Gnorm:      0.010347  CPU:    0.034
 ALPHA BEFORE:    9.0953754107018975E-002
 XC BEFORE:   0.16668425861838729     
  ** Opt : line minimisation
left   ...       0.00000000    -475.56717316
centre ...       0.02273844    -475.56717858
right  ...       0.04547688    -475.56718362

left   ...       0.00000000    -475.56717316
centre ...       0.02273844    -475.56717858
right  ...       0.04547688    -475.56718362
new    ...       0.33482813    -475.56721449

__s__    ...       0.28935126

 ALPHA AFTER:   0.33482813469133910     
 XC AFTER:   0.16664295916473060     
 SANITY CHECK:   0.33482813469148193     
 DIRECTION dim            1  value   -1.2334523111310350E-004
 DIRECTION dim            2  value   -3.0828425763587184E-005
 DIRECTION dim            3  value   -2.1094573984538018E-005
 DIRECTION dim            4  value    6.0596589024819216E-005
 DIRECTION dim            5  value    2.4193444590260891E-005
 DIRECTION dim            6  value   -1.3084154984597895E-004
 DIRECTION dim            7  value   -1.9952705716715996E-005
 DIRECTION dim            8  value   -4.8955751899547203E-005
 DIRECTION dim            9  value   -2.8468944129560394E-007
 DIRECTION dim           10  value   -2.4292067210324617E-005
 DIRECTION dim           11  value   -9.9565207584915819E-006
 DIRECTION dim           12  value    9.5719695250251274E-005
 DIRECTION dim           13  value    1.1426629161667804E-004
 DIRECTION dim           14  value   -6.5457119878618690E-005
 DIRECTION dim           15  value   -1.4374614782386012E-005
 DIRECTION dim           16  value    2.3907844752895849E-005
 DIRECTION dim           17  value    1.3844286376958576E-004
 DIRECTION dim           18  value    1.7306990001610904E-004
 DIRECTION dim           19  value   -4.8055878854630414E-005
 DIRECTION dim           20  value    3.2036465416911949E-005
 DIRECTION dim           21  value    8.9572073066639601E-005
 DIRECTION dim           22  value    4.9973663891593864E-005
 DIRECTION dim           23  value    1.0432354835358966E-004
 DIRECTION dim           24  value   -5.4094219849071051E-005
 DIRECTION dim           25  value    7.1269347756557923E-005
 DIRECTION dim           26  value   -1.3932128079814811E-004
 DIRECTION dim           27  value   -1.0355736502454626E-004
 DIRECTION dim           28  value   -1.3299246306799323E-004
 DIRECTION dim           29  value   -1.8874282357530172E-005
 DIRECTION dim           30  value   -8.6937686306670262E-006
 DIRECTION dim           31  value   -8.6063180691743570E-006
 DIRECTION dim           32  value    6.4417508843332192E-005
 DIRECTION dim           33  value    1.2329339134677884E-004
 DIRECTION dim           34  value   -1.8944562930707216E-004
 DIRECTION dim           35  value    3.9345675445243258E-005
 DIRECTION dim           36  value   -1.3245978899049469E-005
 DIRECTION dim           37  value   -4.1814389870908144E-005
 DIRECTION dim           38  value   -7.3212528038759246E-005
 DIRECTION dim           39  value    1.2124235856123885E-005
 DIRECTION dim           40  value    1.9963784631005596E-004
 DIRECTION dim           41  value   -3.7775488753691473E-005
 DIRECTION dim           42  value   -4.5878934658144571E-005
 DIRECTION dim           43  value    1.2264202989143265E-004
 DIRECTION dim           44  value    1.2405031221338731E-004
 DIRECTION dim           45  value    1.2366798383128455E-004
 DIRECTION dim           46  value    2.9143016490474427E-009
 DIRECTION dim           47  value   -2.7542564222156943E-008
 DIRECTION dim           48  value    3.8752036742988416E-008
  Cycle:      5 Energy:      -475.567214  Gnorm:      0.009460  CPU:    0.038
 ALPHA BEFORE:   0.33482813469133910     
 XC BEFORE:   0.16664295916473060     
  ** Opt : line minimisation
left   ...       0.00000000    -475.56721449
centre ...       0.08370703    -475.56722962
right  ...       0.16741407    -475.56724049

left   ...       0.00000000    -475.56721449
centre ...       0.08370703    -475.56722962
right  ...       0.16741407    -475.56724049
new    ...       0.33903565    -475.56724946

__s__    ...       0.17162158

 ALPHA AFTER:   0.33903564832715133     
 XC AFTER:   0.16662785148485287     
 SANITY CHECK:   0.33903564832670374     
 DIRECTION dim            1  value   -4.4560741480393585E-005
 DIRECTION dim            2  value   -4.4486369097209231E-005
 DIRECTION dim            3  value   -2.7766838468872131E-005
 DIRECTION dim            4  value   -1.4662780542717757E-006
 DIRECTION dim            5  value    3.2367892908816503E-005
 DIRECTION dim            6  value   -1.8431578477115336E-004
 DIRECTION dim            7  value   -5.6087143653366607E-005
 DIRECTION dim            8  value   -6.7068568816375216E-005
 DIRECTION dim            9  value    6.0300747588838664E-006
 DIRECTION dim           10  value   -5.1380982266885505E-005
 DIRECTION dim           11  value   -1.9908179644285843E-005
 DIRECTION dim           12  value    1.2730949624694272E-004
 DIRECTION dim           13  value    3.9698303499207630E-005
 DIRECTION dim           14  value   -9.4944426689503111E-005
 DIRECTION dim           15  value   -1.8285190915624901E-005
 DIRECTION dim           16  value   -5.0684661825172036E-006
 DIRECTION dim           17  value    1.8254897713459490E-004
 DIRECTION dim           18  value    2.2863202785319207E-004
 DIRECTION dim           19  value    1.1455674036507356E-004
 DIRECTION dim           20  value    5.4040221349470739E-005
 DIRECTION dim           21  value    1.3476672350752272E-004
 DIRECTION dim           22  value   -5.6838346540812180E-005
 DIRECTION dim           23  value    1.3839645427428642E-004
 DIRECTION dim           24  value   -7.6096616705508680E-005
 DIRECTION dim           25  value   -3.0822020809034797E-005
 DIRECTION dim           26  value   -1.8660861277780360E-004
 DIRECTION dim           27  value   -1.3635020347373751E-004
 DIRECTION dim           28  value   -1.4665663827124342E-004
 DIRECTION dim           29  value   -2.3351323821288808E-005
 DIRECTION dim           30  value   -7.3370740872221117E-006
 DIRECTION dim           31  value    1.6385122213446946E-005
 DIRECTION dim           32  value    8.3276581778185462E-005
 DIRECTION dim           33  value    1.6054572845858230E-004
 DIRECTION dim           34  value    1.3124149895546520E-004
 DIRECTION dim           35  value    6.6970702189987042E-005
 DIRECTION dim           36  value   -1.4611282231412609E-005
 DIRECTION dim           37  value   -1.3185882598190917E-004
 DIRECTION dim           38  value   -9.8069746080983126E-005
 DIRECTION dim           39  value    2.4080390205386499E-005
 DIRECTION dim           40  value    7.6557626460679697E-005
 DIRECTION dim           41  value   -5.6523282115347672E-005
 DIRECTION dim           42  value   -6.2822491152135512E-005
 DIRECTION dim           43  value    1.3222275240181377E-004
 DIRECTION dim           44  value    1.3451961839468479E-004
 DIRECTION dim           45  value    1.3377515843269542E-004
 DIRECTION dim           46  value    3.1422360895172366E-009
 DIRECTION dim           47  value   -2.0766638878352619E-008
 DIRECTION dim           48  value    4.9419546427472855E-008
  Cycle:      6 Energy:      -475.567249  Gnorm:      0.005610  CPU:    0.040
 ALPHA BEFORE:   0.33903564832715133     
 XC BEFORE:   0.16662785148485287     
  ** Opt : line minimisation
left   ...       0.00000000    -475.56724946
centre ...       0.08475891    -475.56725519
right  ...       0.16951782    -475.56726008

left   ...       0.00000000    -475.56724946
centre ...       0.08475891    -475.56725519
right  ...       0.16951782    -475.56726008
new    ...       0.62359177    -475.56727208

__s__    ...       0.45407394

 ALPHA AFTER:   0.62359176557030560     
 XC AFTER:   0.16665647725183128     
 SANITY CHECK:   0.62359176557012364     
 DIRECTION dim            1  value    4.5904658398159681E-005
 DIRECTION dim            2  value   -3.0202522882778308E-005
 DIRECTION dim            3  value   -1.3542440862678215E-005
 DIRECTION dim            4  value   -3.8593902595633462E-005
 DIRECTION dim            5  value    1.7282990692920066E-005
 DIRECTION dim            6  value   -1.1748874637426408E-004
 DIRECTION dim            7  value    2.9397169500412888E-005
 DIRECTION dim            8  value   -3.9074739063487614E-005
 DIRECTION dim            9  value    1.5898879748061620E-005
 DIRECTION dim           10  value    4.3313572326153440E-005
 DIRECTION dim           11  value   -2.4242022059851822E-005
 DIRECTION dim           12  value    6.7437646579314773E-005
 DIRECTION dim           13  value   -7.1405031360569914E-005
 DIRECTION dim           14  value   -6.6053373901977602E-005
 DIRECTION dim           15  value   -7.9429828863544621E-006
 DIRECTION dim           16  value   -7.3104579883794523E-006
 DIRECTION dim           17  value    9.3176887166665764E-005
 DIRECTION dim           18  value    1.1744680151956453E-004
 DIRECTION dim           19  value   -3.4808089441988392E-005
 DIRECTION dim           20  value    5.1030955525711077E-005
 DIRECTION dim           21  value    1.0191603517739655E-004
 DIRECTION dim           22  value   -1.4832245576688443E-005
 DIRECTION dim           23  value    7.2592821680054982E-005
 DIRECTION dim           24  value   -4.8406083210007092E-005
 DIRECTION dim           25  value   -7.6149800548083877E-006
 DIRECTION dim           26  value   -1.0090588181226180E-004
 DIRECTION dim           27  value   -6.8719910532475444E-005
 DIRECTION dim           28  value    7.1940757934607213E-005
 DIRECTION dim           29  value   -8.7609162959868236E-006
 DIRECTION dim           30  value    4.6749114314172158E-006
 DIRECTION dim           31  value   -5.0784789641459296E-005
 DIRECTION dim           32  value    3.9228747850787351E-005
 DIRECTION dim           33  value    7.7916444067507027E-005
 DIRECTION dim           34  value   -5.1579260554333848E-006
 DIRECTION dim           35  value    6.4390698961894451E-005
 DIRECTION dim           36  value   -1.8007424606914451E-006
 DIRECTION dim           37  value    6.5220255093034196E-006
 DIRECTION dim           38  value   -5.2936864840285902E-005
 DIRECTION dim           39  value    2.8314858057057797E-005
 DIRECTION dim           40  value   -4.4393181235383654E-005
 DIRECTION dim           41  value   -4.2497840454771652E-005
 DIRECTION dim           42  value   -3.6380480938393318E-005
 DIRECTION dim           43  value    2.6778018059636767E-005
 DIRECTION dim           44  value    2.8507331522298122E-005
 DIRECTION dim           45  value    2.7755189604835323E-005
 DIRECTION dim           46  value   -1.3587130539711933E-009
 DIRECTION dim           47  value   -8.2752646531903898E-009
 DIRECTION dim           48  value    1.1853081522579498E-008
  Cycle:      7 Energy:      -475.567272  Gnorm:      0.005199  CPU:    0.043
 ALPHA BEFORE:   0.62359176557030560     
 XC BEFORE:   0.16665647725183128     
  ** Opt : line minimisation
left   ...       0.00000000    -475.56727208
centre ...       0.15589794    -475.56727521
right  ...       0.31179588    -475.56726517

left   ...       0.00000000    -475.56727208
centre ...       0.15589794    -475.56727521
right  ...       0.31179588    -475.56726517
new    ...       0.11502653    -475.56727566

__s__    ...      -0.19676936

 ALPHA AFTER:   0.11502652530566446     
 XC AFTER:   0.16665182881103913     
 SANITY CHECK:   0.11502652530545901     
 DIRECTION dim            1  value   -4.0411903078916684E-005
 DIRECTION dim            2  value   -3.5220013617515886E-005
 DIRECTION dim            3  value   -7.6148169567843148E-006
 DIRECTION dim            4  value    6.2283668744223436E-005
 DIRECTION dim            5  value    1.4386636168947109E-005
 DIRECTION dim            6  value   -1.2990721723339887E-004
 DIRECTION dim            7  value    2.0684599662472338E-005
 DIRECTION dim            8  value   -3.8420296948390927E-005
 DIRECTION dim            9  value    3.2439198376461260E-005
 DIRECTION dim           10  value    2.6170488238751859E-005
 DIRECTION dim           11  value   -4.2933840005225104E-005
 DIRECTION dim           12  value    5.8915010727749934E-005
 DIRECTION dim           13  value   -4.4322929117717503E-005
 DIRECTION dim           14  value   -8.1354394956991585E-005
 DIRECTION dim           15  value   -4.0904323047939046E-006
 DIRECTION dim           16  value   -4.7161967966422834E-005
 DIRECTION dim           17  value    7.5409653980867232E-005
 DIRECTION dim           18  value    9.5343825194438495E-005
 DIRECTION dim           19  value   -1.3995643133958657E-005
 DIRECTION dim           20  value    7.6480365282036254E-005
 DIRECTION dim           21  value    1.3174877315725770E-004
 DIRECTION dim           22  value    5.5902346140097424E-006
 DIRECTION dim           23  value    6.2581830664172161E-005
 DIRECTION dim           24  value   -5.3930112958624856E-005
 DIRECTION dim           25  value   -6.3948478898762756E-007
 DIRECTION dim           26  value   -8.9466797452100990E-005
 DIRECTION dim           27  value   -5.1446475565881429E-005
 DIRECTION dim           28  value    6.9510727042272174E-005
 DIRECTION dim           29  value   -1.9385787353718805E-006
 DIRECTION dim           30  value    1.7270380070606331E-005
 DIRECTION dim           31  value    9.1588142933268307E-005
 DIRECTION dim           32  value    2.6695929839494959E-005
 DIRECTION dim           33  value    5.6700186849033285E-005
 DIRECTION dim           34  value   -4.4637595426729148E-005
 DIRECTION dim           35  value    9.7649288714363682E-005
 DIRECTION dim           36  value    6.6729686530308108E-006
 DIRECTION dim           37  value   -2.9377262980666974E-005
 DIRECTION dim           38  value   -4.5584585788633667E-005
 DIRECTION dim           39  value    4.6546990745414892E-005
 DIRECTION dim           40  value   -1.3663575372972915E-004
 DIRECTION dim           41  value   -5.6219793372062401E-005
 DIRECTION dim           42  value   -3.3950775793751815E-005
 DIRECTION dim           43  value   -1.5433224619338974E-005
 DIRECTION dim           44  value   -1.3299663462808997E-005
 DIRECTION dim           45  value   -1.4326900198624767E-005
 DIRECTION dim           46  value   -8.4808718140509569E-009
 DIRECTION dim           47  value   -8.2394471832369389E-009
 DIRECTION dim           48  value   -2.8842545660896461E-009
  Cycle:      8 Energy:      -475.567276  Gnorm:      0.004162  CPU:    0.046
 ALPHA BEFORE:   0.11502652530566446     
 XC BEFORE:   0.16665182881103913     
  ** Opt : line minimisation
left   ...       0.00000000    -475.56727566
centre ...       0.02875663    -475.56727676
right  ...       0.05751326    -475.56727773

left   ...       0.00000000    -475.56727566
centre ...       0.02875663    -475.56727676
right  ...       0.05751326    -475.56727773
new    ...       0.28253651    -475.56728131

__s__    ...       0.22502325

 ALPHA AFTER:   0.28253651465436996     
 XC AFTER:   0.16665495237762643     
 SANITY CHECK:   0.28253651465244439     
 DIRECTION dim            1  value    1.1055443899493848E-005
 DIRECTION dim            2  value   -3.0767291814599786E-005
 DIRECTION dim            3  value    6.9888576229633534E-007
 DIRECTION dim            4  value    9.1240468843137681E-005
 DIRECTION dim            5  value    7.7355364866674191E-006
 DIRECTION dim            6  value   -1.0789105508024237E-004
 DIRECTION dim            7  value   -4.2981836684651277E-005
 DIRECTION dim            8  value   -2.7775600219058907E-005
 DIRECTION dim            9  value    3.9805778556517327E-005
 DIRECTION dim           10  value   -4.8290879004753140E-005
 DIRECTION dim           11  value   -5.0154156962577438E-005
 DIRECTION dim           12  value    3.5899563755215941E-005
 DIRECTION dim           13  value    2.5499814422011744E-005
 DIRECTION dim           14  value   -7.5257888348619317E-005
 DIRECTION dim           15  value    7.0370840939740122E-007
 DIRECTION dim           16  value   -1.6815347907278454E-006
 DIRECTION dim           17  value    3.9198805676741766E-005
 DIRECTION dim           18  value    4.9622062883296294E-005
 DIRECTION dim           19  value   -2.0921510821639191E-005
 DIRECTION dim           20  value    8.0706006200807144E-005
 DIRECTION dim           21  value    1.2569867829369718E-004
 DIRECTION dim           22  value   -1.3786117179906430E-005
 DIRECTION dim           23  value    3.7257650704864170E-005
 DIRECTION dim           24  value   -4.5276938108412273E-005
 DIRECTION dim           25  value   -2.9924161547350204E-005
 DIRECTION dim           26  value   -5.5306871944262421E-005
 DIRECTION dim           27  value   -2.1005891329774355E-005
 DIRECTION dim           28  value    8.4807076475057789E-006
 DIRECTION dim           29  value    5.1337437547046609E-006
 DIRECTION dim           30  value    2.4968552314944633E-005
 DIRECTION dim           31  value   -1.1744014969610242E-005
 DIRECTION dim           32  value    7.9199577549213138E-006
 DIRECTION dim           33  value    2.1975943938664970E-005
 DIRECTION dim           34  value   -2.1007667047869822E-005
 DIRECTION dim           35  value    1.0385416803944427E-004
 DIRECTION dim           36  value    1.2854301064201475E-005
 DIRECTION dim           37  value    4.5528169613813055E-005
 DIRECTION dim           38  value   -2.6423241558868507E-005
 DIRECTION dim           39  value    5.1593459692740666E-005
 DIRECTION dim           40  value   -6.3711489386063534E-005
 DIRECTION dim           41  value   -5.5028800262060397E-005
 DIRECTION dim           42  value   -2.2278582739703327E-005
 DIRECTION dim           43  value   -4.6520763832923827E-005
 DIRECTION dim           44  value   -4.4561590642924891E-005
 DIRECTION dim           45  value   -4.5565160301295799E-005
 DIRECTION dim           46  value   -1.3670305904129419E-008
 DIRECTION dim           47  value   -7.0599365025616150E-009
 DIRECTION dim           48  value   -1.2682693910500674E-008
  Cycle:      9 Energy:      -475.567281  Gnorm:      0.004004  CPU:    0.049
 ALPHA BEFORE:   0.28253651465436996     
 XC BEFORE:   0.16665495237762643     
  ** Opt : line minimisation
left   ...       0.00000000    -475.56728131
centre ...       0.07063413    -475.56728343
right  ...       0.14126826    -475.56728458

left   ...       0.00000000    -475.56728131
centre ...       0.07063413    -475.56728343
right  ...       0.14126826    -475.56728458
new    ...       0.18911112    -475.56728480

__s__    ...       0.04784286

 ALPHA AFTER:   0.18911111505718459     
 XC AFTER:   0.16664503383777529     
 SANITY CHECK:   0.18911111505683179     
 DIRECTION dim            1  value   -5.2448211984541164E-005
 DIRECTION dim            2  value   -5.9865407967262930E-006
 DIRECTION dim            3  value    8.5782632622898822E-006
 DIRECTION dim            4  value   -1.3684286790119438E-004
 DIRECTION dim            5  value   -2.9712568013586729E-006
 DIRECTION dim            6  value   -1.6588973415287988E-005
 DIRECTION dim            7  value    3.0022594881107598E-005
 DIRECTION dim            8  value   -6.8285163506321593E-007
 DIRECTION dim            9  value    1.7806688448563249E-005
 DIRECTION dim           10  value    2.0835612925292351E-005
 DIRECTION dim           11  value   -2.2581619014467793E-005
 DIRECTION dim           12  value   -4.3943113552623721E-006
 DIRECTION dim           13  value    1.1067590237430364E-005
 DIRECTION dim           14  value   -2.0234686829241033E-005
 DIRECTION dim           15  value    3.9667939773269390E-006
 DIRECTION dim           16  value   -1.9077110069310529E-005
 DIRECTION dim           17  value   -1.3381957475480445E-005
 DIRECTION dim           18  value   -1.7808835242947962E-005
 DIRECTION dim           19  value    2.2330079743926362E-005
 DIRECTION dim           20  value    2.7352491470651213E-005
 DIRECTION dim           21  value    3.3350359436025835E-005
 DIRECTION dim           22  value    3.6125609736310566E-006
 DIRECTION dim           23  value   -5.4769698730579410E-006
 DIRECTION dim           24  value   -7.8149973332618510E-006
 DIRECTION dim           25  value   -2.8935342434095160E-006
 DIRECTION dim           26  value    8.1134586079412567E-006
 DIRECTION dim           27  value    1.7819413861940212E-005
 DIRECTION dim           28  value   -4.1946429566110311E-005
 DIRECTION dim           29  value    6.9931842537497806E-006
 DIRECTION dim           30  value    1.3947743631060018E-005
 DIRECTION dim           31  value    2.2628727290538626E-005
 DIRECTION dim           32  value   -1.0974614401624297E-005
 DIRECTION dim           33  value   -1.7894250758510319E-005
 DIRECTION dim           34  value    2.1787856392937200E-005
 DIRECTION dim           35  value    3.6041203143192978E-005
 DIRECTION dim           36  value    7.9778553524475317E-006
 DIRECTION dim           37  value    1.9072840415220336E-005
 DIRECTION dim           38  value    6.8942865594713589E-006
 DIRECTION dim           39  value    1.8775385588354613E-005
 DIRECTION dim           40  value    3.5873667708021659E-005
 DIRECTION dim           41  value   -1.7133722557287884E-005
 DIRECTION dim           42  value    3.4931854470254175E-006
 DIRECTION dim           43  value   -2.2424630324192730E-005
 DIRECTION dim           44  value   -2.1988603719447664E-005
 DIRECTION dim           45  value   -2.2242274633945903E-005
 DIRECTION dim           46  value   -9.5871170593258379E-009
 DIRECTION dim           47  value    3.1840529996104537E-010
 DIRECTION dim           48  value   -4.0734858860876506E-009
  Cycle:     10 Energy:      -475.567285  Gnorm:      0.002727  CPU:    0.052
 ALPHA BEFORE:   0.18911111505718459     
 XC BEFORE:   0.16664503383777529     
  ** Opt : line minimisation
left   ...       0.00000000    -475.56728480
centre ...       0.04727778    -475.56728550
right  ...       0.09455556    -475.56728597

left   ...       0.00000000    -475.56728480
centre ...       0.04727778    -475.56728550
right  ...       0.09455556    -475.56728597
new    ...       0.16980237    -475.56728626

__s__    ...       0.07524681

 ALPHA AFTER:   0.16980237079570473     
 XC AFTER:   0.16664714328537863     
 SANITY CHECK:   0.16980237079328797     
 DIRECTION dim            1  value    1.2422957309067210E-005
 DIRECTION dim            2  value   -8.6818326180794788E-006
 DIRECTION dim            3  value    1.2566059849740587E-005
 DIRECTION dim            4  value   -2.9987542371748034E-005
 DIRECTION dim            5  value   -4.0674296189074102E-006
 DIRECTION dim            6  value   -2.3936169250757976E-005
 DIRECTION dim            7  value   -2.2559142356200896E-005
 DIRECTION dim            8  value   -1.4555632531524412E-006
 DIRECTION dim            9  value    2.5110011836005593E-005
 DIRECTION dim           10  value   -3.2593154192214645E-005
 DIRECTION dim           11  value   -3.2321084808441551E-005
 DIRECTION dim           12  value   -4.8579706598088117E-006
 DIRECTION dim           13  value    2.4398994121019560E-005
 DIRECTION dim           14  value   -2.9429387706761131E-005
 DIRECTION dim           15  value    5.5781739585336782E-006
 DIRECTION dim           16  value    8.5318045697017390E-006
 DIRECTION dim           17  value   -1.7204443769739658E-005
 DIRECTION dim           18  value   -2.3308236004694155E-005
 DIRECTION dim           19  value   -3.4140963190591347E-006
 DIRECTION dim           20  value    3.8357778870695802E-005
 DIRECTION dim           21  value    4.7144275330367685E-005
 DIRECTION dim           22  value   -2.7373866131311587E-006
 DIRECTION dim           23  value   -6.2663186058098974E-006
 DIRECTION dim           24  value   -1.1326431780665460E-005
 DIRECTION dim           25  value   -9.8399776899760874E-006
 DIRECTION dim           26  value    1.0350038163136304E-005
 DIRECTION dim           27  value    2.4644273077673575E-005
 DIRECTION dim           28  value   -3.8531881972614219E-005
 DIRECTION dim           29  value    9.7443793473353894E-006
 DIRECTION dim           30  value    1.9711295853143675E-005
 DIRECTION dim           31  value   -3.4237765865667154E-005
 DIRECTION dim           32  value   -1.4736979419652522E-005
 DIRECTION dim           33  value   -2.3720323133745317E-005
 DIRECTION dim           34  value    6.5427720864202885E-006
 DIRECTION dim           35  value    5.0620634176238013E-005
 DIRECTION dim           36  value    1.0968591624458063E-005
 DIRECTION dim           37  value    2.4593035372565662E-005
 DIRECTION dim           38  value    9.2758036531172715E-006
 DIRECTION dim           39  value    2.6147708497880344E-005
 DIRECTION dim           40  value    4.2990808771449518E-005
 DIRECTION dim           41  value   -2.4590590119528798E-005
 DIRECTION dim           42  value    5.0685295763838969E-006
 DIRECTION dim           43  value   -2.8219426174953375E-005
 DIRECTION dim           44  value   -2.7602832049993267E-005
 DIRECTION dim           45  value   -2.7962439145159582E-005
 DIRECTION dim           46  value   -1.3746628341813146E-008
 DIRECTION dim           47  value    5.1090741279194290E-010
 DIRECTION dim           48  value   -4.5209311581939279E-009
  Cycle:     11 Energy:      -475.567286  Gnorm:      0.003248  CPU:    0.055
 Perform trimming
 ALPHA BEFORE:   0.16980237079570473     
 XC BEFORE:   0.16664714328537863     
  ** Opt : line minimisation
left   ...       0.00000000    -475.56728626
centre ...       0.04245059    -475.56728712
right  ...       0.08490119    -475.56728790

left   ...       0.00000000    -475.56728626
centre ...       0.04245059    -475.56728712
right  ...       0.08490119    -475.56728790
new    ...       0.51109192    -475.56729166

__s__    ...       0.42619073

 ALPHA AFTER:   0.51109191645411522     
 XC AFTER:   0.16663155570786445     
 SANITY CHECK:   0.51109191645328500     
 DIRECTION dim            1  value   -3.0498579633887544E-005
 DIRECTION dim            2  value   -1.5748756984227552E-005
 DIRECTION dim            3  value    2.2916952691850602E-005
 DIRECTION dim            4  value    1.5133742749694515E-005
 DIRECTION dim            5  value   -7.0396324587534393E-006
 DIRECTION dim            6  value   -4.3151506902796966E-005
 DIRECTION dim            7  value   -2.1860104310707936E-005
 DIRECTION dim            8  value   -3.2743654790150202E-006
 DIRECTION dim            9  value    4.4578258207071236E-005
 DIRECTION dim           10  value   -3.6328380803397314E-005
 DIRECTION dim           11  value   -5.7988610227311906E-005
 DIRECTION dim           12  value   -6.7944782694855055E-006
 DIRECTION dim           13  value    2.2842305232623596E-005
 DIRECTION dim           14  value   -5.3429545041216688E-005
 DIRECTION dim           15  value    9.8928965074171662E-006
 DIRECTION dim           16  value    2.1758757925919046E-006
 DIRECTION dim           17  value   -2.8281440664226404E-005
 DIRECTION dim           18  value   -3.8913332335162453E-005
 DIRECTION dim           19  value    2.4906152200448233E-008
 DIRECTION dim           20  value    6.7762530843312754E-005
 DIRECTION dim           21  value    8.3799026472212228E-005
 DIRECTION dim           22  value    3.4876395216758963E-006
 DIRECTION dim           23  value   -9.1593566466942244E-006
 DIRECTION dim           24  value   -2.0476241239368371E-005
 DIRECTION dim           25  value   -6.7493623262776634E-006
 DIRECTION dim           26  value    1.6925213919894827E-005
 DIRECTION dim           27  value    4.3055721376884375E-005
 DIRECTION dim           28  value   -3.6385656939676450E-005
 DIRECTION dim           29  value    1.7141434904926847E-005
 DIRECTION dim           30  value    3.5044883401323493E-005
 DIRECTION dim           31  value    2.4668444468149350E-005
 DIRECTION dim           32  value   -2.5156061348024721E-005
 DIRECTION dim           33  value   -4.0044054718235197E-005
 DIRECTION dim           34  value   -1.7975313561860287E-005
 DIRECTION dim           35  value    8.9534927685178445E-005
 DIRECTION dim           36  value    1.9100117778167285E-005
 DIRECTION dim           37  value   -1.4124858636178824E-005
 DIRECTION dim           38  value    1.5836619475998915E-005
 DIRECTION dim           39  value    4.5958819381535789E-005
 DIRECTION dim           40  value    1.2463891239226980E-005
 DIRECTION dim           41  value   -4.4194780173870647E-005
 DIRECTION dim           42  value    9.1734499515598707E-006
 DIRECTION dim           43  value   -4.5723308367254307E-005
 DIRECTION dim           44  value   -4.4630780563293517E-005
 DIRECTION dim           45  value   -4.5270394605306247E-005
 DIRECTION dim           46  value   -2.4685288373306529E-008
 DIRECTION dim           47  value    2.1257263614247654E-009
 DIRECTION dim           48  value   -7.4661507519630466E-009
  Cycle:     12 Energy:      -475.567292  Gnorm:      0.002185  CPU:    0.058
 ALPHA BEFORE:   0.51109191645411522     
 XC BEFORE:   0.16663155570786445     
  ** Opt : line minimisation
left   ...       0.00000000    -475.56729166
centre ...       0.12777298    -475.56729294
right  ...       0.25554596    -475.56729397

left   ...       0.00000000    -475.56729166
centre ...       0.12777298    -475.56729294
right  ...       0.25554596    -475.56729397
new    ...       0.72329543    -475.56729564

__s__    ...       0.46774947

 ALPHA AFTER:   0.72329542558128523     
 XC AFTER:   0.16663537661583194     
 SANITY CHECK:   0.72329542558744042     
 DIRECTION dim            1  value    5.2826380927146372E-006
 DIRECTION dim            2  value   -1.2464212160304026E-005
 DIRECTION dim            3  value    1.8565335422654295E-005
 DIRECTION dim            4  value   -4.2969739109189682E-006
 DIRECTION dim            5  value   -3.6229630882284179E-006
 DIRECTION dim            6  value   -3.1997322058825306E-005
 DIRECTION dim            7  value    8.9743545224473613E-006
 DIRECTION dim            8  value   -6.1327425778177327E-006
 DIRECTION dim            9  value    2.9815041773798144E-005
 DIRECTION dim           10  value    1.4590287937403075E-005
 DIRECTION dim           11  value   -4.1919312260501218E-005
 DIRECTION dim           12  value    5.6244272210960606E-006
 DIRECTION dim           13  value   -2.8663711275468726E-005
 DIRECTION dim           14  value   -4.2080967561440856E-005
 DIRECTION dim           15  value    6.6230715484632066E-006
 DIRECTION dim           16  value   -1.6299711588634534E-005
 DIRECTION dim           17  value   -6.3720750993203190E-006
 DIRECTION dim           18  value   -1.2252860935305859E-005
 DIRECTION dim           19  value   -1.8090763054851233E-005
 DIRECTION dim           20  value    4.3189945327696069E-005
 DIRECTION dim           21  value    5.6294860709452414E-005
 DIRECTION dim           22  value   -3.7378674057539331E-006
 DIRECTION dim           23  value    4.6894238650397030E-006
 DIRECTION dim           24  value   -1.5446048148372731E-005
 DIRECTION dim           25  value    2.6150394791097925E-007
 DIRECTION dim           26  value    3.4764554524859355E-006
 DIRECTION dim           27  value    2.4705708700588155E-005
 DIRECTION dim           28  value    2.9990928561532416E-005
 DIRECTION dim           29  value    1.0591507448912220E-005
 DIRECTION dim           30  value    2.3662621233505628E-005
 DIRECTION dim           31  value   -2.5925584805700200E-005
 DIRECTION dim           32  value   -1.1222124845195050E-005
 DIRECTION dim           33  value   -1.5197779771714091E-005
 DIRECTION dim           34  value    1.1299930558482011E-006
 DIRECTION dim           35  value    5.7683633273276683E-005
 DIRECTION dim           36  value    1.0766333286284650E-005
 DIRECTION dim           37  value   -7.7726757323450378E-006
 DIRECTION dim           38  value    6.9396666020582610E-006
 DIRECTION dim           39  value    2.8063607761298311E-005
 DIRECTION dim           40  value   -1.7813153520230315E-005
 DIRECTION dim           41  value   -3.2263769640480497E-005
 DIRECTION dim           42  value    6.9996751491632610E-006
 DIRECTION dim           43  value   -7.7527456978454011E-006
 DIRECTION dim           44  value   -7.0373208033306017E-006
 DIRECTION dim           45  value   -7.4596975520524537E-006
 DIRECTION dim           46  value   -1.7728884825666964E-008
 DIRECTION dim           47  value    5.9996625057885511E-009
 DIRECTION dim           48  value   -2.7063336839589885E-009
  Cycle:     13 Energy:      -475.567296  Gnorm:      0.002061  CPU:    0.061
 ALPHA BEFORE:   0.72329542558128523     
 XC BEFORE:   0.16663537661583194     
  ** Opt : line minimisation
left   ...       0.00000000    -475.56729564
centre ...       0.18082386    -475.56729670
right  ...       0.36164771    -475.56729635

left   ...       0.00000000    -475.56729564
centre ...       0.18082386    -475.56729670
right  ...       0.36164771    -475.56729635
new    ...       0.22633022    -475.56729675

__s__    ...      -0.13531749

 ALPHA AFTER:   0.22633022259759583     
 XC AFTER:   0.16663752560787459     
 SANITY CHECK:   0.22633022259919811     
 DIRECTION dim            1  value    9.4949407019999907E-006
 DIRECTION dim            2  value   -1.7502563184990240E-005
 DIRECTION dim            3  value    2.5077940516406107E-005
 DIRECTION dim            4  value   -7.8989573892806377E-006
 DIRECTION dim            5  value   -2.5243584083617566E-006
 DIRECTION dim            6  value   -3.8311223632470458E-005
 DIRECTION dim            7  value   -5.3011466825350119E-006
 DIRECTION dim            8  value   -1.2790942827841147E-005
 DIRECTION dim            9  value    3.5130777420979633E-005
 DIRECTION dim           10  value    4.2983906931387434E-006
 DIRECTION dim           11  value   -5.1837625874820021E-005
 DIRECTION dim           12  value    1.9400336885527399E-005
 DIRECTION dim           13  value   -2.8350135737263383E-005
 DIRECTION dim           14  value   -5.6139473889784177E-005
 DIRECTION dim           15  value    8.2268540342657454E-006
 DIRECTION dim           16  value    3.0075821321480620E-005
 DIRECTION dim           17  value    8.2229095282810696E-006
 DIRECTION dim           18  value    3.4129298095506214E-006
 DIRECTION dim           19  value    1.2706780508543911E-005
 DIRECTION dim           20  value    4.6375277972068576E-005
 DIRECTION dim           21  value    6.4477022033488220E-005
 DIRECTION dim           22  value   -3.7056514052822667E-005
 DIRECTION dim           23  value    1.8578554584766457E-005
 DIRECTION dim           24  value   -1.8522087752904013E-005
 DIRECTION dim           25  value   -3.0261632039796772E-005
 DIRECTION dim           26  value   -4.4814529862245990E-006
 DIRECTION dim           27  value    2.2538479719269290E-005
 DIRECTION dim           28  value    1.1305183331177029E-005
 DIRECTION dim           29  value    1.1365123611959951E-005
 DIRECTION dim           30  value    2.7769973651480971E-005
 DIRECTION dim           31  value    5.1449897995973020E-006
 DIRECTION dim           32  value   -6.0532976766653357E-006
 DIRECTION dim           33  value   -2.6946818616559152E-006
 DIRECTION dim           34  value   -3.1780464351222704E-007
 DIRECTION dim           35  value    6.2820329207421142E-005
 DIRECTION dim           36  value    1.0517946301143967E-005
 DIRECTION dim           37  value   -1.1371235608618747E-005
 DIRECTION dim           38  value    2.7543436173830971E-006
 DIRECTION dim           39  value    2.8958871406845248E-005
 DIRECTION dim           40  value   -2.8954145094268032E-005
 DIRECTION dim           41  value   -3.9563509713782230E-005
 DIRECTION dim           42  value    8.8130091552999365E-006
 DIRECTION dim           43  value    1.1233752635185897E-005
 DIRECTION dim           44  value    1.2012056134131749E-005
 DIRECTION dim           45  value    1.1557703085797672E-005
 DIRECTION dim           46  value   -2.1385444754800421E-008
 DIRECTION dim           47  value    9.7937368315600311E-009
 DIRECTION dim           48  value   -5.2789684386351087E-009
  Cycle:     14 Energy:      -475.567297  Gnorm:      0.002222  CPU:    0.064
 ALPHA BEFORE:   0.22633022259759583     
 XC BEFORE:   0.16663752560787459     
  ** Opt : line minimisation
left   ...       0.00000000    -475.56729675
centre ...       0.05658256    -475.56729728
right  ...       0.11316511    -475.56729761

left   ...       0.00000000    -475.56729675
centre ...       0.05658256    -475.56729728
right  ...       0.11316511    -475.56729761
new    ...       0.17237674    -475.56729773

__s__    ...       0.05921163

 ALPHA AFTER:   0.17237673684552529     
 XC AFTER:   0.16664493711971831     
 SANITY CHECK:   0.17237673684546045     
 DIRECTION dim            1  value    4.2996009666684926E-005
 DIRECTION dim            2  value   -2.5820248456116890E-005
 DIRECTION dim            3  value    3.5502560066912023E-005
 DIRECTION dim            4  value   -1.7496677145548811E-005
 DIRECTION dim            5  value   -1.6185148896932001E-006
 DIRECTION dim            6  value   -4.9026307352022726E-005
 DIRECTION dim            7  value   -3.3785607223503971E-005
 DIRECTION dim            8  value   -2.2149617078095728E-005
 DIRECTION dim            9  value    4.6400518017858307E-005
 DIRECTION dim           10  value   -2.2762611763904573E-005
 DIRECTION dim           11  value   -6.9751761215718501E-005
 DIRECTION dim           12  value    3.6943856227683164E-005
 DIRECTION dim           13  value   -8.9283913936079938E-006
 DIRECTION dim           14  value   -7.9050242080799617E-005
 DIRECTION dim           15  value    1.1522553069464620E-005
 DIRECTION dim           16  value   -1.9447677486090786E-005
 DIRECTION dim           17  value    2.4724993596055634E-005
 DIRECTION dim           18  value    2.0603857426550651E-005
 DIRECTION dim           19  value    9.4926297605413124E-006
 DIRECTION dim           20  value    5.6057207186792993E-005
 DIRECTION dim           21  value    8.2127369239759788E-005
 DIRECTION dim           22  value   -1.6731935841202336E-005
 DIRECTION dim           23  value    3.5739755003827820E-005
 DIRECTION dim           24  value   -2.3573906953219292E-005
 DIRECTION dim           25  value   -8.9588807276218560E-006
 DIRECTION dim           26  value   -1.2653131140649340E-005
 DIRECTION dim           27  value    2.3194070955456478E-005
 DIRECTION dim           28  value   -1.8063539233305028E-005
 DIRECTION dim           29  value    1.4019871431466373E-005
 DIRECTION dim           30  value    3.6345350768999118E-005
 DIRECTION dim           31  value    1.7102039682031417E-005
 DIRECTION dim           32  value   -1.5766945172081422E-006
 DIRECTION dim           33  value    1.0304913202859885E-005
 DIRECTION dim           34  value   -4.4560851483877483E-006
 DIRECTION dim           35  value    7.6891654982565980E-005
 DIRECTION dim           36  value    1.2188212132749659E-005
 DIRECTION dim           37  value   -5.4539844108115725E-006
 DIRECTION dim           38  value   -1.6002417677327775E-006
 DIRECTION dim           39  value    3.4134374689599994E-005
 DIRECTION dim           40  value   -2.5957630825747530E-005
 DIRECTION dim           41  value   -5.2479376448890632E-005
 DIRECTION dim           42  value    1.1908853956464761E-005
 DIRECTION dim           43  value    2.8996679519134796E-005
 DIRECTION dim           44  value    2.9936075761152668E-005
 DIRECTION dim           45  value    2.9394984227121099E-005
 DIRECTION dim           46  value   -2.8063518329310380E-008
 DIRECTION dim           47  value    1.4936977827576530E-008
 DIRECTION dim           48  value   -8.8228282303044604E-009
  Cycle:     15 Energy:      -475.567298  Gnorm:      0.002276  CPU:    0.067
 ALPHA BEFORE:   0.17237673684552529     
 XC BEFORE:   0.16664493711971831     
  ** Opt : line minimisation
left   ...       0.00000000    -475.56729773
centre ...       0.04309418    -475.56729822
right  ...       0.08618837    -475.56729866

left   ...       0.00000000    -475.56729773
centre ...       0.04309418    -475.56729822
right  ...       0.08618837    -475.56729866
new    ...       0.46365139    -475.56730049

__s__    ...       0.37746303

 ALPHA AFTER:   0.46365139358674567     
 XC AFTER:   0.16663321325115174     
 SANITY CHECK:   0.46365139358733470     
 DIRECTION dim            1  value   -2.5285955631151786E-005
 DIRECTION dim            2  value   -3.2599624579263272E-005
 DIRECTION dim            3  value    4.2711523759546996E-005
 DIRECTION dim            4  value   -4.8961824495611424E-006
 DIRECTION dim            5  value   -2.4204815938168561E-007
 DIRECTION dim            6  value   -5.2658175150876173E-005
 DIRECTION dim            7  value   -1.1673015260365842E-005
 DIRECTION dim            8  value   -3.0633714711489335E-005
 DIRECTION dim            9  value    5.4010176175659754E-005
 DIRECTION dim           10  value   -4.0241359596528251E-006
 DIRECTION dim           11  value   -8.1024139839612331E-005
 DIRECTION dim           12  value    5.2511391991245133E-005
 DIRECTION dim           13  value    2.3780076897490165E-005
 DIRECTION dim           14  value   -9.4801857451652530E-005
 DIRECTION dim           15  value    1.4387085281090938E-005
 DIRECTION dim           16  value   -1.3816489393832819E-005
 DIRECTION dim           17  value    4.0281358888639032E-005
 DIRECTION dim           18  value    3.7867288929512404E-005
 DIRECTION dim           19  value   -1.9025900231560617E-005
 DIRECTION dim           20  value    5.9130219123838945E-005
 DIRECTION dim           21  value    9.1013782014424019E-005
 DIRECTION dim           22  value   -1.2066081989230969E-005
 DIRECTION dim           23  value    5.0458063302557054E-005
 DIRECTION dim           24  value   -2.4988122235958614E-005
 DIRECTION dim           25  value   -6.7079415674546351E-006
 DIRECTION dim           26  value   -1.9086991504564415E-005
 DIRECTION dim           27  value    2.0483588855970190E-005
 DIRECTION dim           28  value   -3.2703397187955108E-005
 DIRECTION dim           29  value    1.5488263375167356E-005
 DIRECTION dim           30  value    4.1696560596160383E-005
 DIRECTION dim           31  value   -1.6879576933954622E-006
 DIRECTION dim           32  value    3.6403686890033019E-006
 DIRECTION dim           33  value    2.4171016045976471E-005
 DIRECTION dim           34  value   -2.8530206297335663E-005
 DIRECTION dim           35  value    8.2171306736377234E-005
 DIRECTION dim           36  value    1.3068195893287146E-005
 DIRECTION dim           37  value    1.0866973246686583E-005
 DIRECTION dim           38  value   -6.8333399382829870E-006
 DIRECTION dim           39  value    3.5587353703849640E-005
 DIRECTION dim           40  value   -3.7594953353435658E-006
 DIRECTION dim           41  value   -5.9617816884288127E-005
 DIRECTION dim           42  value    1.3810855101236870E-005
 DIRECTION dim           43  value    4.0758169177957842E-005
 DIRECTION dim           44  value    4.1731391257181355E-005
 DIRECTION dim           45  value    4.1179776398143347E-005
 DIRECTION dim           46  value   -3.1621716112086764E-008
 DIRECTION dim           47  value    1.7352607740061534E-008
 DIRECTION dim           48  value   -1.1889255149397739E-008
  Cycle:     16 Energy:      -475.567300  Gnorm:      0.001077  CPU:    0.069
 ALPHA BEFORE:   0.46365139358674567     
 XC BEFORE:   0.16663321325115174     
  ** Opt : line minimisation
left   ...       0.00000000    -475.56730049
centre ...       0.11591285    -475.56730077
right  ...       0.23182570    -475.56730096

left   ...       0.00000000    -475.56730049
centre ...       0.11591285    -475.56730077
right  ...       0.23182570    -475.56730096
new    ...       0.46741581    -475.56730112

__s__    ...       0.23559011

 ALPHA AFTER:   0.46741581161210005     
 XC AFTER:   0.16662721373767056     
 SANITY CHECK:   0.46741581161202711     
 DIRECTION dim            1  value   -1.2835495360094061E-005
 DIRECTION dim            2  value   -1.2976086004646417E-005
 DIRECTION dim            3  value    1.2435825426719524E-005
 DIRECTION dim            4  value    2.9136473692673326E-006
 DIRECTION dim            5  value    1.2675113486214372E-006
 DIRECTION dim            6  value   -2.5607312612755717E-006
 DIRECTION dim            7  value    2.0508547756630935E-006
 DIRECTION dim            8  value   -1.3935728743951222E-005
 DIRECTION dim            9  value    1.7974847697675931E-005
 DIRECTION dim           10  value   -7.1731964702744288E-006
 DIRECTION dim           11  value   -2.1747587717195410E-005
 DIRECTION dim           12  value    2.1412989448158359E-005
 DIRECTION dim           13  value   -6.8681654857686051E-006
 DIRECTION dim           14  value   -2.7016691670151025E-005
 DIRECTION dim           15  value    7.0485939507857849E-006
 DIRECTION dim           16  value   -9.9524025133153562E-006
 DIRECTION dim           17  value    1.7415247956025688E-005
 DIRECTION dim           18  value    1.9747915721943178E-005
 DIRECTION dim           19  value    7.7014031718736292E-006
 DIRECTION dim           20  value    9.6099993128444482E-006
 DIRECTION dim           21  value    1.9724688853765465E-005
 DIRECTION dim           22  value    5.7000118502942381E-007
 DIRECTION dim           23  value    1.8048782051264111E-005
 DIRECTION dim           24  value   -8.0768793863896437E-008
 DIRECTION dim           25  value   -5.9630872384029423E-006
 DIRECTION dim           26  value   -2.5053622312383399E-006
 DIRECTION dim           27  value    3.0374020955575760E-007
 DIRECTION dim           28  value   -5.8325539849329185E-007
 DIRECTION dim           29  value    4.8480121053802629E-006
 DIRECTION dim           30  value    1.2280342327184397E-005
 DIRECTION dim           31  value   -1.7983536309096376E-005
 DIRECTION dim           32  value    3.7953793059073467E-006
 DIRECTION dim           33  value    1.5232320179434322E-005
 DIRECTION dim           34  value    1.3368728934921688E-005
 DIRECTION dim           35  value    1.4832454334893353E-005
 DIRECTION dim           36  value    5.2065501458334865E-006
 DIRECTION dim           37  value   -1.2566394820810929E-005
 DIRECTION dim           38  value   -6.5284345317221930E-006
 DIRECTION dim           39  value    7.2081224528657077E-006
 DIRECTION dim           40  value    4.2641137984135171E-006
 DIRECTION dim           41  value   -1.2250735313908838E-005
 DIRECTION dim           42  value    3.6464337934735897E-006
 DIRECTION dim           43  value   -1.5161736664881561E-006
 DIRECTION dim           44  value   -1.4371761007859006E-006
 DIRECTION dim           45  value   -1.4683862473983824E-006
 DIRECTION dim           46  value   -6.0365541864603222E-009
 DIRECTION dim           47  value    5.2068198008061342E-009
 DIRECTION dim           48  value   -3.1346607926725718E-009
  Cycle:     17 Energy:      -475.567301  Gnorm:      0.001203  CPU:    0.072
 ALPHA BEFORE:   0.46741581161210005     
 XC BEFORE:   0.16662721373767056     
  ** Opt : line minimisation
left   ...       0.00000000    -475.56730112
centre ...       0.11685395    -475.56730144
right  ...       0.23370791    -475.56730163

left   ...       0.00000000    -475.56730112
centre ...       0.11685395    -475.56730144
right  ...       0.23370791    -475.56730163
new    ...       0.33449683    -475.56730168

__s__    ...       0.10078893

 ALPHA AFTER:   0.33449683386659412     
 XC AFTER:   0.16662695776230105     
 SANITY CHECK:   0.33449683383131706     
 DIRECTION dim            1  value   -7.6525498486788634E-007
 DIRECTION dim            2  value   -2.1485022124205817E-005
 DIRECTION dim            3  value    1.8462131513031050E-005
 DIRECTION dim            4  value   -5.9219374897969834E-006
 DIRECTION dim            5  value    2.0998722509428878E-006
 DIRECTION dim            6  value    7.9718596128003296E-006
 DIRECTION dim            7  value    3.6756487236118765E-006
 DIRECTION dim            8  value   -2.3553519421025454E-005
 DIRECTION dim            9  value    2.8811298679303847E-005
 DIRECTION dim           10  value   -1.0274822626343014E-005
 DIRECTION dim           11  value   -3.0580456994787060E-005
 DIRECTION dim           12  value    3.4369572764342766E-005
 DIRECTION dim           13  value   -2.0450412014391072E-005
 DIRECTION dim           14  value   -3.7974667452897448E-005
 DIRECTION dim           15  value    1.3191612030447513E-005
 DIRECTION dim           16  value   -3.5213226350175849E-006
 DIRECTION dim           17  value    2.6869538844078694E-005
 DIRECTION dim           18  value    3.2559279240613079E-005
 DIRECTION dim           19  value   -4.7052609541762702E-006
 DIRECTION dim           20  value    8.2534045958076970E-006
 DIRECTION dim           21  value    2.3627441563128661E-005
 DIRECTION dim           22  value    8.7737252759783475E-006
 DIRECTION dim           23  value    2.6577362043738904E-005
 DIRECTION dim           24  value    6.4115395116770421E-006
 DIRECTION dim           25  value   -1.0802635571257059E-006
 DIRECTION dim           26  value    1.4905654396604336E-006
 DIRECTION dim           27  value   -1.8548133059022005E-006
 DIRECTION dim           28  value    3.8710080935631366E-006
 DIRECTION dim           29  value    7.8816058484076982E-006
 DIRECTION dim           30  value    1.8613964244004686E-005
 DIRECTION dim           31  value    6.3856551153512938E-006
 DIRECTION dim           32  value    6.2794382671499718E-006
 DIRECTION dim           33  value    2.6134964491331918E-005
 DIRECTION dim           34  value   -6.4125558993197393E-006
 DIRECTION dim           35  value    1.4968517978227047E-005
 DIRECTION dim           36  value    9.5435282953379128E-006
 DIRECTION dim           37  value   -2.6536197932209439E-005
 DIRECTION dim           38  value   -1.1822548911087969E-005
 DIRECTION dim           39  value    8.8998991710961558E-006
 DIRECTION dim           40  value   -8.0720766267009341E-007
 DIRECTION dim           41  value   -1.3400567974241412E-005
 DIRECTION dim           42  value    5.7149723832455165E-006
 DIRECTION dim           43  value   -1.1679158611109477E-005
 DIRECTION dim           44  value   -1.1728182210424370E-005
 DIRECTION dim           45  value   -1.1671713870849182E-005
 DIRECTION dim           46  value   -5.7614164128827969E-009
 DIRECTION dim           47  value    1.0496947246904351E-008
 DIRECTION dim           48  value   -4.4093827184351571E-009
  Cycle:     18 Energy:      -475.567302  Gnorm:      0.001841  CPU:    0.075
 Perform trimming
 ALPHA BEFORE:   0.33449683386659412     
 XC BEFORE:   0.16662695776230105     
  ** Opt : line minimisation
left   ...       0.00000000    -475.56730168
centre ...       0.08362421    -475.56730200
right  ...       0.16724842    -475.56730218

left   ...       0.00000000    -475.56730168
centre ...       0.08362421    -475.56730200
right  ...       0.16724842    -475.56730218
new    ...       0.22439254    -475.56730221

__s__    ...       0.05714412

 ALPHA AFTER:   0.22439253884276789     
 XC AFTER:   0.16662936314727339     
 SANITY CHECK:   0.22439253884171503     
 DIRECTION dim            1  value    1.0719540786689897E-005
 DIRECTION dim            2  value   -3.3312437434529126E-005
 DIRECTION dim            3  value    2.8287884685593987E-005
 DIRECTION dim            4  value   -8.4772583233400819E-006
 DIRECTION dim            5  value    2.5912351596719847E-006
 DIRECTION dim            6  value    1.8947844966195554E-005
 DIRECTION dim            7  value   -5.5159426173869601E-008
 DIRECTION dim            8  value   -3.6405069491563987E-005
 DIRECTION dim            9  value    4.5042713499544014E-005
 DIRECTION dim           10  value   -1.5800412911067267E-005
 DIRECTION dim           11  value   -4.5607776845946267E-005
 DIRECTION dim           12  value    5.2121885446807900E-005
 DIRECTION dim           13  value   -2.1476210777056479E-005
 DIRECTION dim           14  value   -5.5559815694603999E-005
 DIRECTION dim           15  value    2.1753648751103599E-005
 DIRECTION dim           16  value    2.2677616787438001E-005
 DIRECTION dim           17  value    3.9064982049899785E-005
 DIRECTION dim           18  value    4.8706085163073206E-005
 DIRECTION dim           19  value   -2.2453214149774109E-005
 DIRECTION dim           20  value    9.4874881270865778E-006
 DIRECTION dim           21  value    3.2941299346702911E-005
 DIRECTION dim           22  value    5.6186221720522520E-007
 DIRECTION dim           23  value    3.8457991814616182E-005
 DIRECTION dim           24  value    1.3462652534336155E-005
 DIRECTION dim           25  value   -1.0536769397816800E-005
 DIRECTION dim           26  value    6.6463846740569440E-006
 DIRECTION dim           27  value   -2.2193675938165533E-006
 DIRECTION dim           28  value    3.0289357798555010E-006
 DIRECTION dim           29  value    1.2591103495524344E-005
 DIRECTION dim           30  value    2.8695193540161906E-005
 DIRECTION dim           31  value   -1.4832379090424285E-005
 DIRECTION dim           32  value    8.8903841325510831E-006
 DIRECTION dim           33  value    3.9554102023495983E-005
 DIRECTION dim           34  value   -1.6210378082774075E-005
 DIRECTION dim           35  value    1.9308303044294095E-005
 DIRECTION dim           36  value    1.5838695075014221E-005
 DIRECTION dim           37  value   -1.7749912019760944E-005
 DIRECTION dim           38  value   -1.7899553935001966E-005
 DIRECTION dim           39  value    1.3085708144043846E-005
 DIRECTION dim           40  value    1.1527868188288330E-005
 DIRECTION dim           41  value   -1.7584707025578979E-005
 DIRECTION dim           42  value    9.4511536499761362E-006
 DIRECTION dim           43  value   -1.9970395470090574E-005
 DIRECTION dim           44  value   -2.0125941014184677E-005
 DIRECTION dim           45  value   -1.9990401458335671E-005
 DIRECTION dim           46  value   -6.6374392444504572E-009
 DIRECTION dim           47  value    1.7439607579424600E-008
 DIRECTION dim           48  value   -6.3076528461670505E-009
  Cycle:     19 Energy:      -475.567302  Gnorm:      0.000878  CPU:    0.078
 ALPHA BEFORE:   0.22439253884276789     
 XC BEFORE:   0.16662936314727339     
  ** Opt : line minimisation
left   ...       0.00000000    -475.56730221
centre ...       0.05609813    -475.56730230
right  ...       0.11219627    -475.56730238

left   ...       0.00000000    -475.56730221
centre ...       0.05609813    -475.56730230
right  ...       0.11219627    -475.56730238
new    ...       0.35604465    -475.56730253

__s__    ...       0.24384838

 ALPHA AFTER:   0.35604464659194612     
 XC AFTER:   0.16662557167483111     
 SANITY CHECK:   0.35604464659040097     
 DIRECTION dim            1  value   -1.0648867996165925E-005
 DIRECTION dim            2  value   -3.6000513075362630E-006
 DIRECTION dim            3  value    3.7877083630004402E-006
 DIRECTION dim            4  value   -2.8473077547706037E-006
 DIRECTION dim            5  value   -1.8843714229410297E-006
 DIRECTION dim            6  value    1.3445336840994205E-005
 DIRECTION dim            7  value   -5.1344594944782623E-006
 DIRECTION dim            8  value   -3.2463448194290326E-006
 DIRECTION dim            9  value    6.7708610759375869E-006
 DIRECTION dim           10  value    8.6060542795539743E-006
 DIRECTION dim           11  value   -3.4739742093415140E-006
 DIRECTION dim           12  value    2.9931087660297194E-006
 DIRECTION dim           13  value    1.6372429626782313E-005
 DIRECTION dim           14  value   -7.6284453994677787E-007
 DIRECTION dim           15  value    5.3429966183796399E-006
 DIRECTION dim           16  value   -1.4720548636676166E-005
 DIRECTION dim           17  value   -2.2683697635867180E-006
 DIRECTION dim           18  value    6.0369045974676038E-009
 DIRECTION dim           19  value   -5.3517028556210639E-007
 DIRECTION dim           20  value   -3.6656616870867878E-006
 DIRECTION dim           21  value   -1.1604761197018132E-006
 DIRECTION dim           22  value   -6.0251458629967628E-006
 DIRECTION dim           23  value   -1.8044132717184142E-006
 DIRECTION dim           24  value    7.5437473820927184E-006
 DIRECTION dim           25  value    3.7208096960066696E-006
 DIRECTION dim           26  value    9.9578421442018092E-006
 DIRECTION dim           27  value    3.7285753183845481E-006
 DIRECTION dim           28  value   -6.0940587890068645E-006
 DIRECTION dim           29  value    2.6288097745812453E-006
[...]
centre ...       0.08278795    -475.56731144
right  ...       0.16557590    -475.56731150
new    ...       0.18840358    -475.56731151

__s__    ...       0.02282768

 ALPHA AFTER:   0.18840358047015959     
 XC AFTER:   0.16662794124730096     
 SANITY CHECK:   0.18840358046958058     
 DIRECTION dim            1  value   -9.9217818468107690E-006
 DIRECTION dim            2  value    2.2209241027119263E-006
 DIRECTION dim            3  value    4.2244774110094179E-005
 DIRECTION dim            4  value   -9.7254610605114733E-006
 DIRECTION dim            5  value   -1.1351129696489016E-005
 DIRECTION dim            6  value    4.0248727992488779E-005
 DIRECTION dim            7  value    1.1784299800151468E-005
 DIRECTION dim            8  value    1.8421424550909043E-006
 DIRECTION dim            9  value    2.8567372811718060E-005
 DIRECTION dim           10  value    1.1063774836085849E-005
 DIRECTION dim           11  value   -6.6399924306630081E-006
 DIRECTION dim           12  value    4.3072831779265036E-005
 DIRECTION dim           13  value   -1.1114191396597331E-005
 DIRECTION dim           14  value   -7.2648311113513935E-006
 DIRECTION dim           15  value    4.0936812732933662E-005
 DIRECTION dim           16  value   -1.1179899470431836E-005
 DIRECTION dim           17  value    8.0451839719302215E-008
 DIRECTION dim           18  value    5.0693756456783258E-005
 DIRECTION dim           19  value   -8.9445662866755035E-006
 DIRECTION dim           20  value   -1.7727872027657571E-005
 DIRECTION dim           21  value    2.5516733066813196E-005
 DIRECTION dim           22  value    5.0090519199567989E-006
 DIRECTION dim           23  value    2.8834902368424731E-007
 DIRECTION dim           24  value    4.4950310903433459E-005
 DIRECTION dim           25  value    4.2991255624294858E-006
 DIRECTION dim           26  value   -4.5072745447036964E-006
 DIRECTION dim           27  value    5.3600271219241729E-005
 DIRECTION dim           28  value    1.4706693501973639E-005
 DIRECTION dim           29  value   -6.1822028535023498E-006
 DIRECTION dim           30  value    4.0623889165367285E-005
 DIRECTION dim           31  value    1.5192226927611778E-006
 DIRECTION dim           32  value    2.0879152444956157E-006
 DIRECTION dim           33  value    4.0454482310050706E-005
 DIRECTION dim           34  value    1.4649124201445212E-005
 DIRECTION dim           35  value   -1.8997239937576129E-005
 DIRECTION dim           36  value    3.3536698834463217E-005
 DIRECTION dim           37  value   -8.2371436435490115E-006
 DIRECTION dim           38  value    3.2230005971453469E-006
 DIRECTION dim           39  value    2.4356953695664218E-005
 DIRECTION dim           40  value   -8.8479739026566947E-006
 DIRECTION dim           41  value   -4.3139457619014139E-006
 DIRECTION dim           42  value    4.4728808357802078E-005
 DIRECTION dim           43  value    6.6870417128848371E-006
 DIRECTION dim           44  value    6.6496110391957906E-006
 DIRECTION dim           45  value    6.6665335968329247E-006
 DIRECTION dim           46  value    5.5523617239972211E-009
 DIRECTION dim           47  value    1.2387695386559356E-009
 DIRECTION dim           48  value    8.0127145715885903E-011
  Cycle:     48 Energy:      -475.567312  Gnorm:      0.000816  CPU:    0.180
 ALPHA BEFORE:   0.18840358047015959     
 XC BEFORE:   0.16662794124730096     
  ** Opt : line minimisation
left   ...       0.00000000    -475.56731151
centre ...       0.04710090    -475.56731157
right  ...       0.09420179    -475.56731164

left   ...       0.00000000    -475.56731151
centre ...       0.04710090    -475.56731157
right  ...       0.09420179    -475.56731164
new    ...       0.54526349    -475.56731192

__s__    ...       0.45106170

 ALPHA AFTER:   0.54526349200310398     
 XC AFTER:   0.16662469284414011     
 SANITY CHECK:   0.54526349200616697     
 DIRECTION dim            1  value   -5.9574924939455682E-006
 DIRECTION dim            2  value    2.0684542886167446E-007
 DIRECTION dim            3  value    2.2938799109994091E-005
 DIRECTION dim            4  value    6.8964939036993269E-006
 DIRECTION dim            5  value   -6.6413876266207230E-006
 DIRECTION dim            6  value    1.7097649853644230E-005
 DIRECTION dim            7  value   -5.5952409171330955E-006
 DIRECTION dim            8  value   -5.7346858402456063E-009
 DIRECTION dim            9  value    1.7503712396541072E-005
 DIRECTION dim           10  value   -6.0870102835622931E-006
 DIRECTION dim           11  value   -3.9710579549048808E-006
 DIRECTION dim           12  value    2.3363905671091636E-005
 DIRECTION dim           13  value    7.7183769682770941E-006
 DIRECTION dim           14  value   -3.9103987775543957E-006
 DIRECTION dim           15  value    2.3503113275674372E-005
 DIRECTION dim           16  value   -4.6378754833477038E-006
 DIRECTION dim           17  value   -7.2189389473223204E-007
 DIRECTION dim           18  value    2.8121032896342809E-005
 DIRECTION dim           19  value    1.2277101197028426E-005
 DIRECTION dim           20  value   -6.4638254655655853E-006
 DIRECTION dim           21  value    2.1513482388429612E-005
 DIRECTION dim           22  value   -2.2792434785851728E-006
 DIRECTION dim           23  value   -4.8806720632967441E-007
 DIRECTION dim           24  value    2.3728068263814971E-005
 DIRECTION dim           25  value   -2.7679031578673072E-006
 DIRECTION dim           26  value   -4.9042879025485793E-006
 DIRECTION dim           27  value    2.9982161029398917E-005
 DIRECTION dim           28  value   -7.1828256632739166E-006
 DIRECTION dim           29  value   -3.3751921736790182E-006
 DIRECTION dim           30  value    2.3435235052736459E-005
 DIRECTION dim           31  value   -4.6239045057860301E-006
 DIRECTION dim           32  value    1.4488195596453321E-007
 DIRECTION dim           33  value    2.1434114779772768E-005
 DIRECTION dim           34  value    3.9044319117136173E-006
 DIRECTION dim           35  value   -5.9653595199445865E-006
 DIRECTION dim           36  value    2.0512943720445529E-005
 DIRECTION dim           37  value    3.8064955610126938E-006
 DIRECTION dim           38  value    8.5651550201288198E-007
 DIRECTION dim           39  value    1.7587469978378551E-005
 DIRECTION dim           40  value    3.3405367193376277E-006
 DIRECTION dim           41  value   -3.2637952381116896E-006
 DIRECTION dim           42  value    2.3943400421021001E-005
 DIRECTION dim           43  value    3.0554862038894700E-007
 DIRECTION dim           44  value    3.9840558686285807E-007
 DIRECTION dim           45  value    3.3945293751610707E-007
 DIRECTION dim           46  value    1.6952264733752589E-009
 DIRECTION dim           47  value   -1.0600848775650811E-009
 DIRECTION dim           48  value   -9.3823003636269370E-011
  Cycle:     49 Energy:      -475.567312  Gnorm:      0.001079  CPU:    0.184
 ALPHA BEFORE:   0.54526349200310398     
 XC BEFORE:   0.16662469284414011     
  ** Opt : line minimisation
left   ...       0.00000000    -475.56731192
centre ...       0.13631587    -475.56731206
right  ...       0.27263175    -475.56731175

left   ...       0.00000000    -475.56731192
centre ...       0.13631587    -475.56731206
right  ...       0.27263175    -475.56731175
new    ...       0.11020401    -475.56731207

__s__    ...      -0.16242773

 ALPHA AFTER:   0.11020401493997642     
 XC AFTER:   0.16662429137069706     
 SANITY CHECK:   0.11020401494084063     
 DIRECTION dim            1  value   -3.6430019655932677E-006
 DIRECTION dim            2  value   -2.0969677849349224E-006
 DIRECTION dim            3  value    8.6974988960329340E-008
 DIRECTION dim            4  value   -1.0531324031895699E-005
 DIRECTION dim            5  value    3.0134129674848459E-007
 DIRECTION dim            6  value   -1.9084472574208509E-006
 DIRECTION dim            7  value    1.0423378042889422E-005
 DIRECTION dim            8  value   -2.1037781779161619E-006
 DIRECTION dim            9  value    4.2505005384693641E-006
 DIRECTION dim           10  value    1.0750446498187419E-005
 DIRECTION dim           11  value    3.0280475611781930E-007
 DIRECTION dim           12  value    3.6776489221622503E-007
 DIRECTION dim           13  value    8.5727475359786495E-008
 DIRECTION dim           14  value    7.2675118373201828E-008
 DIRECTION dim           15  value    3.1794049872626873E-006
 DIRECTION dim           16  value    8.0951339153321836E-006
 DIRECTION dim           17  value   -1.8719361252716660E-006
 DIRECTION dim           18  value    1.3701597389084228E-006
 DIRECTION dim           19  value   -1.7156238369968674E-005
 DIRECTION dim           20  value    3.5996210359922190E-006
 DIRECTION dim           21  value    9.6812139849767099E-006
 DIRECTION dim           22  value    5.5864887573147807E-006
 DIRECTION dim           23  value   -1.8134265167160291E-006
 DIRECTION dim           24  value    2.3301978552437275E-006
 DIRECTION dim           25  value    5.9071553999658425E-006
 DIRECTION dim           26  value   -1.7048479510846933E-006
 DIRECTION dim           27  value    1.1913581038995597E-006
 DIRECTION dim           28  value   -5.0900852411063872E-006
 DIRECTION dim           29  value    2.8752560431513118E-008
 DIRECTION dim           30  value    3.2336859213174613E-006
 DIRECTION dim           31  value    3.2434214743732895E-005
 DIRECTION dim           32  value   -1.9262580840350211E-006
 DIRECTION dim           33  value   -1.0384991855042120E-007
 DIRECTION dim           34  value   -2.0817785263811503E-005
 DIRECTION dim           35  value    4.6890915987665775E-006
 DIRECTION dim           36  value    4.7532169948801554E-006
 DIRECTION dim           37  value   -6.9612882711265714E-006
 DIRECTION dim           38  value   -2.0711425960254443E-006
 DIRECTION dim           39  value    6.3917554795578867E-006
 DIRECTION dim           40  value   -6.6934227144886518E-006
 DIRECTION dim           41  value   -1.9040699669966838E-007
 DIRECTION dim           42  value   -1.7131634661746151E-007
 DIRECTION dim           43  value   -3.2596815151285651E-006
 DIRECTION dim           44  value   -3.1637062666686202E-006
 DIRECTION dim           45  value   -3.2205924551315103E-006
 DIRECTION dim           46  value   -1.0303741670521965E-009
 DIRECTION dim           47  value   -1.0297881995395398E-009
 DIRECTION dim           48  value   -2.7559095024429732E-010
  Cycle:     50 Energy:      -475.567312  Gnorm:      0.000735  CPU:    0.188
 ALPHA BEFORE:   0.11020401493997642     
 XC BEFORE:   0.16662429137069706     
  ** Opt : line minimisation
left   ...       0.00000000    -475.56731207
centre ...       0.02755100    -475.56731210
right  ...       0.05510201    -475.56731213

left   ...       0.00000000    -475.56731207
centre ...       0.02755100    -475.56731210
right  ...       0.05510201    -475.56731213
new    ...       0.14136455    -475.56731216

__s__    ...       0.08626254

 ALPHA AFTER:   0.14136455119094357     
 XC AFTER:   0.16662673117409055     
 SANITY CHECK:   0.14136455119008753     
 DIRECTION dim            1  value    1.7258947684861154E-005
 DIRECTION dim            2  value   -2.9207612957401077E-006
 DIRECTION dim            3  value    3.0165273274608114E-007
 DIRECTION dim            4  value   -7.7630731992298129E-006
 DIRECTION dim            5  value    3.4513759993998476E-007
 DIRECTION dim            6  value   -2.7922695145969063E-006
 DIRECTION dim            7  value   -4.4008835160744631E-007
 DIRECTION dim            8  value   -2.9315352580043427E-006
 DIRECTION dim            9  value    6.0679359452954546E-006
 DIRECTION dim           10  value   -2.2443958183009507E-008
 DIRECTION dim           11  value    3.3013159594197811E-007
 DIRECTION dim           12  value    7.0278875826024616E-007
 DIRECTION dim           13  value    4.5089362353924147E-006
 DIRECTION dim           14  value    6.7452884741395026E-008
 DIRECTION dim           15  value    4.6094185503306580E-006
 DIRECTION dim           16  value    1.2033245906143529E-005
 DIRECTION dim           17  value   -2.5950264472089999E-006
 DIRECTION dim           18  value    2.1665776112126806E-006
 DIRECTION dim           19  value   -1.7939121324981304E-005
 DIRECTION dim           20  value    5.0894497771906412E-006
 DIRECTION dim           21  value    1.3887684987217214E-005
 DIRECTION dim           22  value    1.7191125370299492E-006
 DIRECTION dim           23  value   -2.5148557063082597E-006
 DIRECTION dim           24  value    3.3186589521214779E-006
 DIRECTION dim           25  value    2.1284961659906364E-006
 DIRECTION dim           26  value   -2.5619380982890414E-006
 DIRECTION dim           27  value    1.9153967784427804E-006
 DIRECTION dim           28  value   -9.3965918894311216E-006
 DIRECTION dim           29  value    4.4589006257762335E-009
 DIRECTION dim           30  value    4.6878959863026509E-006
 DIRECTION dim           31  value    3.4483584798946164E-006
 DIRECTION dim           32  value   -2.6790482561854416E-006
 DIRECTION dim           33  value    2.0306046423364720E-008
 DIRECTION dim           34  value   -1.4046601736366275E-005
 DIRECTION dim           35  value    6.6574905949700609E-006
 DIRECTION dim           36  value    6.7963231415256674E-006
 DIRECTION dim           37  value    5.4716772784512962E-006
 DIRECTION dim           38  value   -2.8823293908000781E-006
 DIRECTION dim           39  value    9.1493752020946810E-006
 DIRECTION dim           40  value    5.8149902221923482E-006
 DIRECTION dim           41  value   -3.7918687825412651E-007
 DIRECTION dim           42  value   -6.6047614520077528E-008
 DIRECTION dim           43  value   -4.3856504134690375E-006
 DIRECTION dim           44  value   -4.2468685658716860E-006
 DIRECTION dim           45  value   -4.3283613693263523E-006
 DIRECTION dim           46  value   -1.4586532162839664E-009
 DIRECTION dim           47  value   -1.7752731071798144E-009
 DIRECTION dim           48  value   -3.0048276545193467E-010


  **** Optimisation achieved ****


  Final energy =    -475.56731216 eV
  Final Gnorm  =       0.00041271

  Components of energy : 

--------------------------------------------------------------------------------
  Interatomic potentials     =          65.00883304 eV    
  Monopole - monopole (real) =        -237.15309216 eV    
  Monopole - monopole (recip)=        -303.42305304 eV    
  Monopole - monopole (total)=        -540.57614520 eV    
--------------------------------------------------------------------------------
  Total lattice energy       =        -475.56731216 eV    
--------------------------------------------------------------------------------
  Total lattice energy       =          -45884.9759 kJ/(mole unit cells)
--------------------------------------------------------------------------------

  Final fractional coordinates of atoms :

--------------------------------------------------------------------------------
   No.  Atomic        x           y          z          Radius
        Label       (Frac)      (Frac)     (Frac)       (Angs) 
--------------------------------------------------------------------------------
     1  Sr    c     0.999960    0.999870    0.000550    0.000000
     2  Ti    c     0.166627    0.499907    0.500275    0.000000
     3  O     c     0.999959    0.499908    0.500270    0.000000
     4  O     c     0.166626    0.999909    0.500256    0.000000
     5  O     c     0.166626    0.499910    0.000257    0.000000
     6  Sr    c     0.333293    0.999914    0.000200    0.000000
     7  Ti    c     0.499961    0.499917    0.500181    0.000000
     8  O     c     0.333291    0.499899    0.500192    0.000000
     9  O     c     0.499960    0.999917    0.500167    0.000000
    10  O     c     0.499960    0.499930    0.000180    0.000000
    11  Sr    c     0.666628    0.999914    0.000199    0.000000
    12  Ti    c     0.833294    0.499906    0.500276    0.000000
    13  O     c     0.666626    0.499895    0.500211    0.000000
    14  O     c     0.833294    0.999909    0.500248    0.000000
    15  O     c     0.833294    0.499912    0.000259    0.000000
--------------------------------------------------------------------------------

  Final Cartesian lattice vectors (Angstroms) :

       11.869508    0.000000    0.000000
        0.000000    3.956501   -0.000000
        0.000000   -0.000000    3.956502


  Final cell parameters and derivatives :

--------------------------------------------------------------------------------
       a           11.869508 Angstrom     dE/de1(xx)     0.002198 eV/strain
       b            3.956501 Angstrom     dE/de2(yy)     0.002110 eV/strain
       c            3.956502 Angstrom     dE/de3(zz)     0.002161 eV/strain
       alpha       90.000000 Degrees      dE/de4(yz)     0.000001 eV/strain
       beta        90.000000 Degrees      dE/de5(xz)     0.000001 eV/strain
       gamma       90.000000 Degrees      dE/de6(xy)     0.000000 eV/strain
--------------------------------------------------------------------------------

  Primitive cell volume =           185.804156 Angs**3

  Density of cell =      4.919918 g/cm**3

  Non-primitive cell volume =           185.804156 Angs**3


  Final internal derivatives :

--------------------------------------------------------------------------------
   No.  Atomic          a             b             c           Radius
        Label          (eV)          (eV)          (eV)        (eV/Angs)
--------------------------------------------------------------------------------
      1 Sr    c       0.000000      0.000000      0.000000      0.000000
      2 Ti    c       0.004633      0.001680     -0.000568      0.000000
      3 O     c      -0.003222     -0.000037      0.001888      0.000000
      4 O     c      -0.000394      0.001689     -0.003814      0.000000
      5 O     c      -0.000559      0.000010     -0.000822      0.000000
      6 Sr    c      -0.000112      0.000035     -0.003048      0.000000
      7 Ti    c       0.003813      0.001466     -0.001810      0.000000
      8 O     c      -0.008928     -0.003089     -0.008861      0.000000
      9 O     c       0.001864      0.001423     -0.002074      0.000000
     10 O     c       0.001702      0.001879     -0.001662      0.000000
     11 Sr    c       0.001138      0.000075     -0.003100      0.000000
     12 Ti    c       0.000409      0.001532     -0.000372      0.000000
     13 O     c      -0.003527     -0.004100     -0.004294      0.000000
     14 O     c       0.001992      0.001652     -0.005799      0.000000
     15 O     c       0.001854      0.000466     -0.000341      0.000000
--------------------------------------------------------------------------------
  Maximum abs         0.008928      0.004100      0.008861      0.000000
--------------------------------------------------------------------------------


  Time to end of optimisation =       0.1929 seconds

 Exiting ------OPTIONS------

  Peak dynamic memory used =       0.55 MB 


  Timing analysis for GULP :

--------------------------------------------------------------------------------
  Task / Subroutine                                          Time (Seconds)
--------------------------------------------------------------------------------
  Calculation of reciprocal space energy and derivatives          0.0211
  Calculation of real space energy and derivatives                0.1591
  Global summation overhead                                       0.0001
--------------------------------------------------------------------------------
  Total CPU time                                                  0.1929
--------------------------------------------------------------------------------


  Job Finished at 13:26.38 21st February   2020                               

