********************************************************************************
*                       GENERAL UTILITY LATTICE PROGRAM                        *
*                                 Julian Gale                                  *
*                       Curtin Institute for Computation                       *
*                           Department of Chemistry                            *
*                    Curtin University, Western Australia                      *
********************************************************************************
* Version = 5.1.1 * Last modified =  25th August 2019                          *
********************************************************************************
*  optimise     - perform optimisation run                                     *
*  conp         - constant pressure calculation                                *
*  nosymmetry   - turn off symmetry after initial structure generation         *
*  full         - generate full unit cell when symmetry is removed             *
*  conjugate    - use conjugate gradients minimiser                            *
********************************************************************************
* ASE calculation                                                              *
********************************************************************************


  Job Started  at 13:26.38 21st February   2020                               

  Number of CPUs =     1


  Total number of configurations input =      1

********************************************************************************
*  Input for Configuration =   1                                               *
********************************************************************************

  Formula = Sr3Ti3O9                                                    

  Number of irreducible atoms/shells =      15


  Total number atoms/shells =      15

  Dimensionality = 3               :  Bulk   



  Cartesian lattice vectors (Angstroms) :

       12.000000    0.000000    0.000000
        0.000000    4.000000    0.000000
        0.000000    0.000000    4.000000

  Cell parameters (Angstroms/Degrees):

  a =      12.0000    alpha =  90.0000
  b =       4.0000    beta  =  90.0000
  c =       4.0000    gamma =  90.0000

  Initial cell volume =         192.000000 Angs**3

  Temperature of configuration =  0.000     K 

  Pressure of configuration =         0.000 GPa 

  Fractional coordinates of asymmetric unit :

--------------------------------------------------------------------------------
   No.  Atomic       x           y          z         Charge      Occupancy
        Label      (Frac)      (Frac)     (Frac)        (e)         (Frac)  
--------------------------------------------------------------------------------
      1 Sr    c    0.999850    0.000360    0.999990     2.00000    1.000000    
      2 Ti    c    0.166710 *  0.500030 *  0.500050 *   4.00000    1.000000    
      3 O     c    0.000050 *  0.500680 *  0.500190 *  -2.00000    1.000000    
      4 O     c    0.166570 *  0.999870 *  0.499700 *  -2.00000    1.000000    
      5 O     c    0.166600 *  0.499850 *  0.999910 *  -2.00000    1.000000    
      6 Sr    c    0.333370 *  0.000290 *  0.999980 *   2.00000    1.000000    
      7 Ti    c    0.500060 *  0.500190 *  0.500580 *   4.00000    1.000000    
      8 O     c    0.333440 *  0.499320 *  0.500160 *  -2.00000    1.000000    
      9 O     c    0.500070 *  0.000580 *  0.500650 *  -2.00000    1.000000    
     10 O     c    0.500040 *  0.499980 *  0.999500 *  -2.00000    1.000000    
     11 Sr    c    0.666980 *  0.000650 *  0.999700 *   2.00000    1.000000    
     12 Ti    c    0.833180 *  0.500010 *  0.500730 *   4.00000    1.000000    
     13 O     c    0.666770 *  0.499940 *  0.500100 *  -2.00000    1.000000    
     14 O     c    0.833490 *  0.000170 *  0.499850 *  -2.00000    1.000000    
     15 O     c    0.833340 *  0.499170 *  0.000420 *  -2.00000    1.000000    
--------------------------------------------------------------------------------



********************************************************************************
*  General input information                                                   *
********************************************************************************

  Species output for all configurations : 

--------------------------------------------------------------------------------
  Species    Type    Atomic    Atomic    Charge       Radii (Angs)     Library
                     Number     Mass       (e)     Cova   Ionic  VDW   Symbol
--------------------------------------------------------------------------------
    Sr       Core       38      87.62   2.000000   1.120  0.000  1.670          
    Ti       Core       22      47.88   4.000000   1.470  0.000  2.190          
    O        Core        8      16.00  -2.000000   0.730  0.000  1.360          
--------------------------------------------------------------------------------


  Lattice summation method               =    Ewald          (3-D)
                                         =    Parry          (2-D)
                                         =    Saunders et al (1-D)
  Accuracy factor for lattice sums       =   12.000


  Time limit = Infinity

  Maximum range for interatomic potentials =    100000.000000 Angstroms

  General interatomic potentials :

--------------------------------------------------------------------------------
Atom  Types   Potential      Parameter       Value         Units   Cutoffs(Ang)
  1     2                                                            Min /  Max 
--------------------------------------------------------------------------------
O    c Sr   c Buckingham    Buckingham A     1952.3900    eV        0.000 10.000
                            Buckingham rho  0.33685000    Ang       
                            Buckingham C     19.220000    eV*Ang^6  
--------------------------------------------------------------------------------
O    c Ti   c Buckingham    Buckingham A     4590.7279    eV        0.000 10.000
                            Buckingham rho  0.26100000    Ang       
                            Buckingham C     0.0000000    eV*Ang^6  
--------------------------------------------------------------------------------
O    c O    c Buckingham    Buckingham A     1388.7700    eV        0.000 10.000
                            Buckingham rho  0.36262000    Ang       
                            Buckingham C     175.00000    eV*Ang^6  
--------------------------------------------------------------------------------
 Calling ------OPTIONS------

********************************************************************************
*  Output for configuration   1                                                *
********************************************************************************


  Components of energy : 

--------------------------------------------------------------------------------
  Interatomic potentials     =          59.32167851 eV    
  Monopole - monopole (real) =        -234.57426617 eV    
  Monopole - monopole (recip)=        -300.12329799 eV    
  Monopole - monopole (total)=        -534.69756416 eV    
--------------------------------------------------------------------------------
  Total lattice energy       =        -475.37588565 eV    
--------------------------------------------------------------------------------
  Total lattice energy       =          -45866.5062 kJ/(mole unit cells)
--------------------------------------------------------------------------------


  Number of variables =       48

  Maximum number of calculations  =          1000
  Maximum Hessian update interval =            10
  Maximum step size               =   1.000000000
  Maximum parameter tolerance     =   0.000010000
  Maximum function  tolerance     =   0.000010000
  Maximum gradient  tolerance     =   0.001000000
  Maximum gradient  component     =   0.010000000

  Cell parameters to be optimised using strains

  Conjugate gradient optimiser to be used

  Lower half triangular hessian to be used

  Start of bulk optimisation :

  Cycle:      0 Energy:      -475.375886  Gnorm:      0.419631  CPU:    0.006
 ALPHA BEFORE:    1.0000000000000000     
 XC BEFORE:   0.16670999999996639     
  ** Opt : line minimisation
left   ...       0.00000000    -475.37588565
centre ...       0.25000000    -475.45937155
right  ...       0.50000000    -475.50636435

left   ...       0.00000000    -475.37588565
centre ...       0.25000000    -475.45937155
right  ...       0.50000000    -475.50636435
new    ...       0.69692938    -475.51707715

__s__    ...       0.19692938

 ALPHA AFTER:   0.69692938194025855     
 XC AFTER:   0.16587196630029921     
 SANITY CHECK:   0.69692938194025578     
 DIRECTION dim            1  value   -1.2024657323731743E-003
 DIRECTION dim            2  value   -1.4624340086751991E-005
 DIRECTION dim            3  value   -5.9944495076537384E-005
 DIRECTION dim            4  value   -5.9491571097865204E-004
 DIRECTION dim            5  value   -1.3826404588736645E-004
 DIRECTION dim            6  value    7.0492835192256773E-005
 DIRECTION dim            7  value    8.5028509523215853E-004
 DIRECTION dim            8  value    3.8938392416596192E-005
 DIRECTION dim            9  value    6.0797380187222078E-005
 DIRECTION dim           10  value    7.7832982111693738E-004
 DIRECTION dim           11  value    1.8428572950291002E-005
 DIRECTION dim           12  value    1.3304744451970586E-005
 DIRECTION dim           13  value   -1.8489013132836157E-004
 DIRECTION dim           14  value   -3.6511883059549027E-006
 DIRECTION dim           15  value    2.4227125341381029E-005
 DIRECTION dim           16  value   -4.7261367026364166E-004
 DIRECTION dim           17  value   -8.9659484970732670E-005
 DIRECTION dim           18  value   -1.9556355760178416E-004
 DIRECTION dim           19  value   -2.1197885556706084E-004
 DIRECTION dim           20  value    2.4440921983384851E-004
 DIRECTION dim           21  value   -5.7427681074029365E-005
 DIRECTION dim           22  value    3.2718088415547967E-004
 DIRECTION dim           23  value   -3.1266317537894593E-004
 DIRECTION dim           24  value   -1.7157182003515266E-004
 DIRECTION dim           25  value    3.7120496703148324E-004
 DIRECTION dim           26  value    1.7330984358194225E-004
 DIRECTION dim           27  value    3.8210338224508678E-004
 DIRECTION dim           28  value   -5.2618689704136501E-004
 DIRECTION dim           29  value   -4.2521077999712478E-005
 DIRECTION dim           30  value    1.0558794541978451E-004
 DIRECTION dim           31  value    2.3616314741375924E-003
 DIRECTION dim           32  value   -3.0418884413765892E-005
 DIRECTION dim           33  value   -3.6264390165414648E-004
 DIRECTION dim           34  value   -7.0374454798761142E-006
 DIRECTION dim           35  value    1.3153026421360841E-004
 DIRECTION dim           36  value    6.6392001479191197E-005
 DIRECTION dim           37  value   -1.1402085083537579E-003
 DIRECTION dim           38  value   -1.5712532843461597E-004
 DIRECTION dim           39  value    2.3714138937471743E-004
 DIRECTION dim           40  value   -8.5902318902443629E-004
 DIRECTION dim           41  value    2.2270034889450719E-004
 DIRECTION dim           42  value   -1.6864016634092079E-004
 DIRECTION dim           43  value   -1.1451638330899887E-002
 DIRECTION dim           44  value   -1.1451319811911099E-002
 DIRECTION dim           45  value   -1.1449806633736754E-002
 DIRECTION dim           46  value   -2.0525119489064099E-007
 DIRECTION dim           47  value    6.9568005814560863E-008
 DIRECTION dim           48  value    4.7978196225833996E-008
  Cycle:      1 Energy:      -475.517077  Gnorm:      0.732287  CPU:    0.014
 Perform trimming
 ALPHA BEFORE:   0.69692938194025855     
 XC BEFORE:   0.16587196630029921     
  ** Opt : line minimisation
left   ...       0.00000000    -475.51707715
centre ...       0.17423235    -475.56576597
right  ...       0.34846469    -475.52905485

left   ...       0.00000000    -475.51707715
centre ...       0.17423235    -475.56576597
right  ...       0.34846469    -475.52905485
new    ...       0.18645076    -475.56599689

__s__    ...      -0.16201393

left   ...       0.17423235    -475.56576597
centre ...       0.18645076    -475.56599689
right  ...       0.34846469    -475.52905485
new    ...       0.18700951    -475.56599740

__s__    ...       0.00055875

 ALPHA AFTER:   0.18700951380719669     
 XC AFTER:   0.16672031804578943     
 SANITY CHECK:   0.18700951380719705     
 DIRECTION dim            1  value    4.5364095559590374E-003
 DIRECTION dim            2  value   -1.9203984823817703E-005
 DIRECTION dim            3  value   -9.1295369769293173E-005
 DIRECTION dim            4  value    6.2488703733242553E-004
 DIRECTION dim            5  value   -2.3595446403170694E-004
 DIRECTION dim            6  value    9.6786585988592317E-005
 DIRECTION dim            7  value   -2.1145116640076656E-003
 DIRECTION dim            8  value    6.8050091560498536E-005
 DIRECTION dim            9  value    9.7591038644577306E-005
 DIRECTION dim           10  value   -2.1910181578145582E-003
 DIRECTION dim           11  value    3.0773922871199570E-005
 DIRECTION dim           12  value    2.6697770398407193E-005
 DIRECTION dim           13  value    9.5381701976195480E-004
 DIRECTION dim           14  value   -1.3271315933428237E-005
 DIRECTION dim           15  value    3.9761143217299166E-005
 DIRECTION dim           16  value    2.3819133272290952E-003
 DIRECTION dim           17  value   -1.2235225635940785E-004
 DIRECTION dim           18  value   -3.2241497315172184E-004
 DIRECTION dim           19  value   -1.1964616166544766E-003
 DIRECTION dim           20  value    3.9267237365697130E-004
 DIRECTION dim           21  value   -9.0234255243483905E-005
 DIRECTION dim           22  value   -1.1322225616292856E-003
 DIRECTION dim           23  value   -4.8645235915169489E-004
 DIRECTION dim           24  value   -2.7590689967388625E-004
 DIRECTION dim           25  value   -1.0745211851425427E-003
 DIRECTION dim           26  value    2.6110963508725105E-004
 DIRECTION dim           27  value    6.1539099969592679E-004
 DIRECTION dim           28  value   -1.1962528739691601E-003
 DIRECTION dim           29  value   -8.1312532826531767E-005
 DIRECTION dim           30  value    1.7163798825582728E-004
 DIRECTION dim           31  value   -6.9612413646434647E-003
 DIRECTION dim           32  value   -3.6683981423653318E-005
 DIRECTION dim           33  value   -5.6173070100334161E-004
 DIRECTION dim           34  value    4.8874471075737640E-004
 DIRECTION dim           35  value    1.9801122791422617E-004
 DIRECTION dim           36  value    9.8111889747717909E-005
 DIRECTION dim           37  value    3.1430031913055327E-003
 DIRECTION dim           38  value   -2.4189032397349238E-004
 DIRECTION dim           39  value    3.6160911950600485E-004
 DIRECTION dim           40  value    3.4737815662824146E-003
 DIRECTION dim           41  value    3.5936949597371344E-004
 DIRECTION dim           42  value   -2.5374705451700470E-004
 DIRECTION dim           43  value   -1.6318017663204121E-002
 DIRECTION dim           44  value   -1.6308832935618862E-002
 DIRECTION dim           45  value   -1.6306812300339729E-002
 DIRECTION dim           46  value   -3.4657952510747932E-007
 DIRECTION dim           47  value   -2.5881157783861278E-007
 DIRECTION dim           48  value   -8.7982499528187455E-008
  Cycle:      2 Energy:      -475.565997  Gnorm:      0.076074  CPU:    0.020
 ALPHA BEFORE:   0.18700951380719669     
 XC BEFORE:   0.16672031804578943     
  ** Opt : line minimisation
left   ...       0.00000000    -475.56599740
centre ...       0.04675238    -475.56652541
right  ...       0.09350476    -475.56686297

left   ...       0.00000000    -475.56599740
centre ...       0.04675238    -475.56652541
right  ...       0.09350476    -475.56686297
new    ...       0.15299148    -475.56701753

__s__    ...       0.05948673

 ALPHA AFTER:   0.15299148406450117     
 XC AFTER:   0.16667352199029961     
 SANITY CHECK:   0.15299148406451377     
 DIRECTION dim            1  value   -3.0587359666430674E-004
 DIRECTION dim            2  value    6.1803753609094717E-006
 DIRECTION dim            3  value   -1.4959727549735739E-005
 DIRECTION dim            4  value    1.5335750139973555E-003
 DIRECTION dim            5  value   -1.2021836451910246E-004
 DIRECTION dim            6  value   -1.5086450682670214E-005
 DIRECTION dim            7  value   -6.2332715496455661E-004
 DIRECTION dim            8  value    3.9549005148585439E-005
 DIRECTION dim            9  value    3.2678928869935546E-005
 DIRECTION dim           10  value   -5.4733481429090371E-004
 DIRECTION dim           11  value    1.3503043795891782E-005
 DIRECTION dim           12  value    2.3434402089879258E-005
 DIRECTION dim           13  value   -5.2073791478071262E-004
 DIRECTION dim           14  value   -2.5176272926279491E-005
 DIRECTION dim           15  value    1.5480475813222394E-005
 DIRECTION dim           16  value   -6.1627326252008388E-004
 DIRECTION dim           17  value    1.6359884922308716E-005
 DIRECTION dim           18  value   -1.2208415097925628E-004
 DIRECTION dim           19  value    2.0858039934048798E-003
 DIRECTION dim           20  value    1.3202634513984152E-004
 DIRECTION dim           21  value   -2.3625914645206435E-005
 DIRECTION dim           22  value   -1.2749437148330145E-004
 DIRECTION dim           23  value   -1.1191490907215445E-004
 DIRECTION dim           24  value   -9.2007550094466061E-005
 DIRECTION dim           25  value   -1.4422019128944939E-004
 DIRECTION dim           26  value    3.7005660454173809E-005
 DIRECTION dim           27  value    1.9803203631657654E-004
 DIRECTION dim           28  value    1.1716565205510704E-003
 DIRECTION dim           29  value   -6.4723479165520911E-005
 DIRECTION dim           30  value    6.4479069353023233E-005
 DIRECTION dim           31  value   -1.2091206013447344E-003
 DIRECTION dim           32  value    2.0055753770431967E-005
 DIRECTION dim           33  value   -1.2770332058860369E-004
 DIRECTION dim           34  value   -1.2783505448485594E-003
 DIRECTION dim           35  value    2.6769089683151273E-005
 DIRECTION dim           36  value    9.6130663520051053E-006
 DIRECTION dim           37  value    3.5881262972634943E-004
 DIRECTION dim           38  value   -4.6830928381800761E-005
 DIRECTION dim           39  value    6.6063819479409238E-005
 DIRECTION dim           40  value    1.4988793182044857E-004
 DIRECTION dim           41  value    1.2512592440005644E-004
 DIRECTION dim           42  value   -3.8031900786523337E-005
 DIRECTION dim           43  value    4.8633179013568112E-004
 DIRECTION dim           44  value    4.8180013216136584E-004
 DIRECTION dim           45  value    4.8162293881268245E-004
 DIRECTION dim           46  value   -1.4881703587597296E-007
 DIRECTION dim           47  value    4.7475838487163041E-008
 DIRECTION dim           48  value   -3.5457168620477260E-007
  Cycle:      3 Energy:      -475.567018  Gnorm:      0.018128  CPU:    0.024
 ALPHA BEFORE:   0.15299148406450117     
 XC BEFORE:   0.16667352199029961     
  ** Opt : line minimisation
left   ...       0.00000000    -475.56701753
centre ...       0.03824787    -475.56704138
right  ...       0.07649574    -475.56705494

left   ...       0.00000000    -475.56701753
centre ...       0.03824787    -475.56704138
right  ...       0.07649574    -475.56705494
new    ...       0.10773968    -475.56705838

__s__    ...       0.03124394

 ALPHA AFTER:   0.10773967743927450     
 XC AFTER:   0.16664771761397199     
 SANITY CHECK:   0.10773967743926140     
 DIRECTION dim            1  value   -2.3950671601159578E-004
 DIRECTION dim            2  value    6.7902261943832534E-006
 DIRECTION dim            3  value   -1.5486848795732665E-005
 DIRECTION dim            4  value    1.0345395200861016E-004
 DIRECTION dim            5  value   -1.2927304150581117E-004
 DIRECTION dim            6  value   -1.6614303094728197E-005
 DIRECTION dim            7  value    6.7629369557684746E-005
 DIRECTION dim            8  value    4.2001085832718144E-005
 DIRECTION dim            9  value    3.5963394034030862E-005
 DIRECTION dim           10  value    1.2285452865679855E-004
 DIRECTION dim           11  value    1.5443047966931704E-005
 DIRECTION dim           12  value    2.4159833076633099E-005
 DIRECTION dim           13  value   -1.2831149996946122E-004
 DIRECTION dim           14  value   -2.6844581620701565E-005
 DIRECTION dim           15  value    1.6385871736873896E-005
 DIRECTION dim           16  value   -4.5721799577432432E-004
 DIRECTION dim           17  value    1.4362594818971729E-005
 DIRECTION dim           18  value   -1.2540609019347562E-004
 DIRECTION dim           19  value    1.5697491618456514E-004
 DIRECTION dim           20  value    1.4247919679762877E-004
 DIRECTION dim           21  value   -2.4322013787964946E-005
 DIRECTION dim           22  value    2.5715722505421770E-005
 DIRECTION dim           23  value   -1.1735023349801435E-004
 DIRECTION dim           24  value   -9.6966211469302118E-005
 DIRECTION dim           25  value    1.1983677522688581E-005
 DIRECTION dim           26  value    3.9204013563347588E-005
 DIRECTION dim           27  value    2.0403620832260257E-004
 DIRECTION dim           28  value    2.6547082738888664E-004
 DIRECTION dim           29  value   -6.9934438373773450E-005
 DIRECTION dim           30  value    6.9114802315041080E-005
 DIRECTION dim           31  value    1.7552996111917086E-004
 DIRECTION dim           32  value    1.9985420792393279E-005
 DIRECTION dim           33  value   -1.3545317705634518E-004
 DIRECTION dim           34  value    1.1864169170182640E-004
 DIRECTION dim           35  value    2.8384250619932178E-005
 DIRECTION dim           36  value    1.0810796549676782E-005
 DIRECTION dim           37  value   -1.7921106226180907E-004
 DIRECTION dim           38  value   -4.8844433442434670E-005
 DIRECTION dim           39  value    7.0521708410996705E-005
 DIRECTION dim           40  value   -3.3640999446560700E-004
 DIRECTION dim           41  value    1.3581187315403378E-004
 DIRECTION dim           42  value   -4.2265992103116486E-005
 DIRECTION dim           43  value    1.2360379595399010E-004
 DIRECTION dim           44  value    1.2281508275426909E-004
 DIRECTION dim           45  value    1.2270388478578955E-004
 DIRECTION dim           46  value   -1.5143607215109099E-007
 DIRECTION dim           47  value    8.3349681640848766E-008
 DIRECTION dim           48  value   -1.7926793617561817E-007
  Cycle:      4 Energy:      -475.567058  Gnorm:      0.014066  CPU:    0.028
 ALPHA BEFORE:   0.10773967743927450     
 XC BEFORE:   0.16664771761397199     
  ** Opt : line minimisation
left   ...       0.00000000    -475.56705838
centre ...       0.02693492    -475.56707012
right  ...       0.05386984    -475.56708078

left   ...       0.00000000    -475.56705838
centre ...       0.02693492    -475.56707012
right  ...       0.05386984    -475.56708078
new    ...       0.30651421    -475.56712828

__s__    ...       0.25264437

 ALPHA AFTER:   0.30651420503453713     
 XC AFTER:   0.16664493709352821     
 SANITY CHECK:   0.30651420503370108     
 DIRECTION dim            1  value   -9.0714244172581554E-006
 DIRECTION dim            2  value    1.0825089203576955E-005
 DIRECTION dim            3  value   -2.2105027478691393E-005
 DIRECTION dim            4  value    3.1060412142328055E-005
 DIRECTION dim            5  value   -1.9556100727414954E-004
 DIRECTION dim            6  value   -2.7198376539635205E-005
 DIRECTION dim            7  value    1.6389739498889921E-005
 DIRECTION dim            8  value    6.2777380055725835E-005
 DIRECTION dim            9  value    5.4647788089465872E-005
 DIRECTION dim           10  value    8.6827379366237264E-005
 DIRECTION dim           11  value    2.4254824227376321E-005
 DIRECTION dim           12  value    3.6023939138690396E-005
 DIRECTION dim           13  value   -5.2444712811525017E-005
 DIRECTION dim           14  value   -4.1030681045273682E-005
 DIRECTION dim           15  value    2.4503670134305597E-005
 DIRECTION dim           16  value   -1.5990512960994187E-004
 DIRECTION dim           17  value    2.1566278862929239E-005
 DIRECTION dim           18  value   -1.8430075730484994E-004
 DIRECTION dim           19  value   -1.1747422004297219E-004
 DIRECTION dim           20  value    2.1414629531506558E-004
 DIRECTION dim           21  value   -3.5238517574761421E-005
 DIRECTION dim           22  value   -1.3019136705333081E-004
 DIRECTION dim           23  value   -1.7113026279780199E-004
 DIRECTION dim           24  value   -1.4413177258586636E-004
 DIRECTION dim           25  value   -1.4918174864911413E-004
 DIRECTION dim           26  value    5.6111479068249336E-005
 DIRECTION dim           27  value    2.9869848003353085E-004
 DIRECTION dim           28  value    2.1891009738797152E-004
 DIRECTION dim           29  value   -1.0681260562850398E-004
 DIRECTION dim           30  value    1.0386175762468006E-004
 DIRECTION dim           31  value   -2.4047565953553058E-004
 DIRECTION dim           32  value    3.0089481322634458E-005
 DIRECTION dim           33  value   -1.9912319398152496E-004
 DIRECTION dim           34  value    2.4745801837998361E-004
 DIRECTION dim           35  value    4.0586024064489978E-005
 DIRECTION dim           36  value    1.5731351270708737E-005
 DIRECTION dim           37  value    2.7578143421759873E-005
 DIRECTION dim           38  value   -7.0466411106345010E-005
 DIRECTION dim           39  value    1.0300224386839500E-004
 DIRECTION dim           40  value   -1.7763945647731111E-004
 DIRECTION dim           41  value    2.0478936734114950E-004
 DIRECTION dim           42  value   -6.2515282569452287E-005
 DIRECTION dim           43  value    1.4916296564427450E-004
 DIRECTION dim           44  value    1.4820869220766983E-004
 DIRECTION dim           45  value    1.4798377769361458E-004
 DIRECTION dim           46  value   -2.2126601301846835E-007
 DIRECTION dim           47  value    1.0941284415472104E-007
 DIRECTION dim           48  value   -2.3467533566344967E-007
  Cycle:      5 Energy:      -475.567128  Gnorm:      0.012001  CPU:    0.031
 ALPHA BEFORE:   0.30651420503453713     
 XC BEFORE:   0.16664493709352821     
  ** Opt : line minimisation
left   ...       0.00000000    -475.56712828
centre ...       0.07662855    -475.56715148
right  ...       0.15325710    -475.56717023

left   ...       0.00000000    -475.56712828
centre ...       0.07662855    -475.56715148
right  ...       0.15325710    -475.56717023
new    ...       0.43702970    -475.56720084

__s__    ...       0.28377260

 ALPHA AFTER:   0.43702969860197682     
 XC AFTER:   0.16668538397832691     
 SANITY CHECK:   0.43702969860226948     
 DIRECTION dim            1  value    9.2549510772529508E-005
 DIRECTION dim            2  value    1.6041176384531592E-005
 DIRECTION dim            3  value   -2.1896298762096434E-005
 DIRECTION dim            4  value   -1.3775808503435551E-004
 DIRECTION dim            5  value   -2.4586465471851881E-004
 DIRECTION dim            6  value   -4.3501384598005748E-005
 DIRECTION dim            7  value   -4.1221969093391137E-005
 DIRECTION dim            8  value    7.5545021315850732E-005
 DIRECTION dim            9  value    6.9656860324719301E-005
 DIRECTION dim           10  value    7.5460027345863867E-007
 DIRECTION dim           11  value    3.4451628554137571E-005
 DIRECTION dim           12  value    4.3246898668996138E-005
 DIRECTION dim           13  value   -9.4379526084331154E-005
 DIRECTION dim           14  value   -5.3606320927178537E-005
 DIRECTION dim           15  value    2.9608982846041930E-005
 DIRECTION dim           16  value    1.3675115008814125E-005
 DIRECTION dim           17  value    2.7302288701672215E-005
 DIRECTION dim           18  value   -2.0883354549009083E-004
 DIRECTION dim           19  value   -1.1698220633457528E-004
 DIRECTION dim           20  value    2.6286259908015321E-004
 DIRECTION dim           21  value   -3.7484647694288165E-005
 DIRECTION dim           22  value   -7.6485214180324623E-005
 DIRECTION dim           23  value   -1.8681749128483154E-004
 DIRECTION dim           24  value   -1.7025082191420818E-004
 DIRECTION dim           25  value   -9.3608723337648542E-005
 DIRECTION dim           26  value    5.6164555200277577E-005
 DIRECTION dim           27  value    3.3257321707078248E-004
 DIRECTION dim           28  value    1.1482411988694176E-004
 DIRECTION dim           29  value   -1.3903670284112806E-004
 DIRECTION dim           30  value    1.2771177775892960E-004
 DIRECTION dim           31  value    5.8107883228840221E-005
 DIRECTION dim           32  value    3.7595168329430603E-005
 DIRECTION dim           33  value   -2.2454357976512356E-004
 DIRECTION dim           34  value   -1.7928423146310279E-004
 DIRECTION dim           35  value    4.0427872732979009E-005
 DIRECTION dim           36  value    1.6772678098302025E-005
 DIRECTION dim           37  value    2.9701434438922918E-005
 DIRECTION dim           38  value   -7.3247700522686922E-005
 DIRECTION dim           39  value    1.1285921617077950E-004
 DIRECTION dim           40  value   -1.1083859133345137E-004
 DIRECTION dim           41  value    2.5420929040690206E-004
 DIRECTION dim           42  value   -7.1778016212175268E-005
 DIRECTION dim           43  value    1.3314422238293032E-004
 DIRECTION dim           44  value    1.3173726380442106E-004
 DIRECTION dim           45  value    1.3128584671388797E-004
 DIRECTION dim           46  value   -2.4205692652439408E-007
 DIRECTION dim           47  value    9.2805724816193783E-008
 DIRECTION dim           48  value   -2.2538846650579225E-007
  Cycle:      6 Energy:      -475.567201  Gnorm:      0.007998  CPU:    0.033
 ALPHA BEFORE:   0.43702969860197682     
 XC BEFORE:   0.16668538397832691     
  ** Opt : line minimisation
left   ...       0.00000000    -475.56720084
centre ...       0.10925742    -475.56721540
right  ...       0.21851485    -475.56722685

left   ...       0.00000000    -475.56720084
centre ...       0.10925742    -475.56721540
right  ...       0.21851485    -475.56722685
new    ...       0.56524078    -475.56724254

__s__    ...       0.34672594

 ALPHA AFTER:   0.56524078435229430     
 XC AFTER:   0.16663809599340929     
 SANITY CHECK:   0.56524078435253389     
 DIRECTION dim            1  value   -8.3659895440477795E-005
 DIRECTION dim            2  value    1.7035711535411369E-005
 DIRECTION dim            3  value   -4.8029817405784022E-006
 DIRECTION dim            4  value    2.6827891416541648E-005
 DIRECTION dim            5  value   -1.8745678784236862E-004
 DIRECTION dim            6  value   -5.2016019826706403E-005
 DIRECTION dim            7  value   -9.5713635694211541E-005
 DIRECTION dim            8  value    5.0849868767757102E-005
 DIRECTION dim            9  value    5.5764358121005225E-005
 DIRECTION dim           10  value   -1.2653556321938974E-004
 DIRECTION dim           11  value    3.5104166882415582E-005
 DIRECTION dim           12  value    2.8974994539372319E-005
 DIRECTION dim           13  value    5.8975612961171387E-005
 DIRECTION dim           14  value   -4.5275144275290407E-005
 DIRECTION dim           15  value    2.0314414608414301E-005
 DIRECTION dim           16  value   -3.7543152330304752E-005
 DIRECTION dim           17  value    2.0766105686318066E-005
 DIRECTION dim           18  value   -1.1370111362889212E-004
 DIRECTION dim           19  value   -1.1916229509946075E-005
 DIRECTION dim           20  value    1.8853999628183263E-004
 DIRECTION dim           21  value   -1.4807150168408118E-005
 DIRECTION dim           22  value   -8.5314264540341818E-006
 DIRECTION dim           23  value   -8.6001004781034854E-005
 DIRECTION dim           24  value   -1.0834642450422032E-004
 DIRECTION dim           25  value   -9.0580116725168421E-006
 DIRECTION dim           26  value    1.4268402706311116E-005
 DIRECTION dim           27  value    1.6723137935267620E-004
 DIRECTION dim           28  value   -1.5513379328781169E-004
 DIRECTION dim           29  value   -1.1661679247326298E-004
 DIRECTION dim           30  value    9.2377916350228309E-005
 DIRECTION dim           31  value   -2.5881505690540381E-005
 DIRECTION dim           32  value    2.8070828265497347E-005
 DIRECTION dim           33  value   -1.1964120178083053E-004
 DIRECTION dim           34  value   -5.3367521579388159E-005
 DIRECTION dim           35  value    9.9559239462964506E-006
 DIRECTION dim           36  value    6.3666028561232775E-006
 DIRECTION dim           37  value   -2.5659535682017563E-005
 DIRECTION dim           38  value   -2.4860597224940423E-005
 DIRECTION dim           39  value    5.2541731388994518E-005
 DIRECTION dim           40  value    3.6286441888219027E-005
 DIRECTION dim           41  value    1.8885911814375274E-004
 DIRECTION dim           42  value   -4.1504873354559185E-005
 DIRECTION dim           43  value    1.9988896424443409E-005
 DIRECTION dim           44  value    1.9156929420011389E-005
 DIRECTION dim           45  value    1.8627777499958346E-005
 DIRECTION dim           46  value   -1.0089902345159592E-007
 DIRECTION dim           47  value    2.1972304510189620E-010
 DIRECTION dim           48  value   -1.2169777533428440E-007
  Cycle:      7 Energy:      -475.567243  Gnorm:      0.009517  CPU:    0.036
 Perform trimming
 ALPHA BEFORE:   0.56524078435229430     
 XC BEFORE:   0.16663809599340929     
  ** Opt : line minimisation
left   ...       0.00000000    -475.56724254
centre ...       0.14131020    -475.56725098
right  ...       0.28262039    -475.56722268

left   ...       0.00000000    -475.56724254
centre ...       0.14131020    -475.56725098
right  ...       0.28262039    -475.56722268
new    ...       0.10310072    -475.56725232

__s__    ...      -0.17951967

 ALPHA AFTER:   0.10310071881638883     
 XC AFTER:   0.16660144589169243     
 SANITY CHECK:   0.10310071881639898     
 DIRECTION dim            1  value   -3.5547862456829791E-004
 DIRECTION dim            2  value    3.0688083251936616E-005
 DIRECTION dim            3  value    4.0749321900677116E-006
 DIRECTION dim            4  value   -6.3287117616927122E-005
 DIRECTION dim            5  value   -2.8841252448258875E-004
 DIRECTION dim            6  value   -9.8235487950090297E-005
 DIRECTION dim            7  value    1.5128698188892189E-005
 DIRECTION dim            8  value    7.2154300968060099E-005
 DIRECTION dim            9  value    9.0320346147115680E-005
 DIRECTION dim           10  value   -3.7056365387725887E-005
 DIRECTION dim           11  value    6.4762450028743858E-005
 DIRECTION dim           12  value    4.1167996192752971E-005
 DIRECTION dim           13  value    2.7891382653839294E-006
 DIRECTION dim           14  value   -7.4709435267355517E-005
 DIRECTION dim           15  value    2.9607452648785698E-005
 DIRECTION dim           16  value    4.1752490418531949E-006
 DIRECTION dim           17  value    3.0170000560509702E-005
 DIRECTION dim           18  value   -1.3221762658059366E-004
 DIRECTION dim           19  value    1.3805097791259334E-005
 DIRECTION dim           20  value    2.8138365480814072E-004
 DIRECTION dim           21  value   -9.5782148358626130E-006
 DIRECTION dim           22  value   -5.9718189986265069E-005
 DIRECTION dim           23  value   -7.9930294148413921E-005
 DIRECTION dim           24  value   -1.4782960282866552E-004
 DIRECTION dim           25  value   -5.1915611547046849E-005
 DIRECTION dim           26  value   -4.1742071987255742E-006
 DIRECTION dim           27  value    1.7437998256559088E-004
 DIRECTION dim           28  value   -2.0573317719551688E-004
 DIRECTION dim           29  value   -1.9254066231821679E-004
 DIRECTION dim           30  value    1.3943180170207582E-004
 DIRECTION dim           31  value    8.2766347901463280E-005
 DIRECTION dim           32  value    4.2283693459644018E-005
 DIRECTION dim           33  value   -1.3622645606189347E-004
 DIRECTION dim           34  value   -4.9892181331901808E-005
 DIRECTION dim           35  value   -3.2499712877565600E-006
 DIRECTION dim           36  value    3.2586688270350302E-006
 DIRECTION dim           37  value   -1.4897772617001437E-004
 DIRECTION dim           38  value   -8.4679273201310096E-006
 DIRECTION dim           39  value    4.9004932662665496E-005
 DIRECTION dim           40  value   -1.7441912632607101E-005
 DIRECTION dim           41  value    2.9035184727924080E-004
 DIRECTION dim           42  value   -5.3063195033894454E-005
 DIRECTION dim           43  value   -2.0885568500663040E-005
 DIRECTION dim           44  value   -2.1909981099476471E-005
 DIRECTION dim           45  value   -2.2783754538668419E-005
 DIRECTION dim           46  value   -6.2655592698674284E-008
 DIRECTION dim           47  value   -1.0211038086561650E-008
 DIRECTION dim           48  value   -1.4679399731357851E-007
  Cycle:      8 Energy:      -475.567252  Gnorm:      0.005461  CPU:    0.039
 ALPHA BEFORE:   0.10310071881638883     
 XC BEFORE:   0.16660144589169243     
  ** Opt : line minimisation
left   ...       0.00000000    -475.56725232
centre ...       0.02577518    -475.56725404
right  ...       0.05155036    -475.56725564

left   ...       0.00000000    -475.56725232
centre ...       0.02577518    -475.56725404
right  ...       0.05155036    -475.56725564
new    ...       0.39270801    -475.56726583

__s__    ...       0.34115765

 ALPHA AFTER:   0.39270800869612055     
 XC AFTER:   0.16659627898227367     
 SANITY CHECK:   0.39270800869738792     
 DIRECTION dim            1  value   -1.3157127698775595E-005
 DIRECTION dim            2  value    1.9384437838960721E-005
 DIRECTION dim            3  value    1.3730808860199430E-005
 DIRECTION dim            4  value   -1.2652751534900921E-004
 DIRECTION dim            5  value   -1.3897806768381948E-004
 DIRECTION dim            6  value   -6.5973632643734844E-005
 DIRECTION dim            7  value    6.2678965654008879E-007
 DIRECTION dim            8  value    2.8724337047107121E-005
 DIRECTION dim            9  value    4.8908457639252652E-005
 DIRECTION dim           10  value   -1.8970653382130070E-005
 DIRECTION dim           11  value    4.3059471042091646E-005
 DIRECTION dim           12  value    1.6521517797675779E-005
 DIRECTION dim           13  value   -6.9357999846288222E-005
 DIRECTION dim           14  value   -4.1502906088484607E-005
 DIRECTION dim           15  value    1.2771291271950097E-005
 DIRECTION dim           16  value   -2.9700785802101045E-005
 DIRECTION dim           17  value    1.2095103341283815E-005
 DIRECTION dim           18  value   -2.0411347454563895E-005
 DIRECTION dim           19  value   -2.7713428241998476E-005
 DIRECTION dim           20  value    1.2768138225129207E-004
 DIRECTION dim           21  value    8.8514332135459879E-006
 DIRECTION dim           22  value   -3.0449793238983484E-005
 DIRECTION dim           23  value    1.4386239157677556E-005
 DIRECTION dim           24  value   -5.2623350158976183E-005
 DIRECTION dim           25  value   -1.9298659314182775E-005
 DIRECTION dim           26  value   -2.8282363073562044E-005
 DIRECTION dim           27  value   -7.2566761573861574E-007
 DIRECTION dim           28  value   -7.2993513737035548E-005
 DIRECTION dim           29  value   -1.0736019509500575E-004
 DIRECTION dim           30  value    6.5225809839183045E-005
 DIRECTION dim           31  value   -7.4517430428997395E-005
 DIRECTION dim           32  value    1.9413417293098641E-005
 DIRECTION dim           33  value   -1.7381619311061427E-005
 DIRECTION dim           34  value    3.2078663967976032E-005
 DIRECTION dim           35  value   -2.0015274612008999E-005
 DIRECTION dim           36  value   -5.2767918525089852E-006
 DIRECTION dim           37  value   -6.4349245818129825E-005
 DIRECTION dim           38  value    2.6462608272121753E-005
 DIRECTION dim           39  value   -8.8291354414912334E-006
 DIRECTION dim           40  value    1.0112714514271155E-005
 DIRECTION dim           41  value    1.4140018617256166E-004
 DIRECTION dim           42  value   -1.5246035891224476E-005
 DIRECTION dim           43  value   -5.5735232130117463E-005
 DIRECTION dim           44  value   -5.6020660874943097E-005
 DIRECTION dim           45  value   -5.6476799841721432E-005
 DIRECTION dim           46  value    6.7200553700537210E-008
 DIRECTION dim           47  value   -1.1533731865915685E-008
 DIRECTION dim           48  value   -2.9932600085873536E-008
  Cycle:      9 Energy:      -475.567266  Gnorm:      0.006219  CPU:    0.042
 ALPHA BEFORE:   0.39270800869612055     
 XC BEFORE:   0.16659627898227367     
  ** Opt : line minimisation
left   ...       0.00000000    -475.56726583
centre ...       0.09817700    -475.56727190
right  ...       0.19635400    -475.56727260

left   ...       0.00000000    -475.56726583
centre ...       0.09817700    -475.56727190
right  ...       0.19635400    -475.56727260
new    ...       0.16015781    -475.56727297

__s__    ...      -0.03619620

 ALPHA AFTER:   0.16015780699849239     
 XC AFTER:   0.16659214784170839     
 SANITY CHECK:   0.16015780699738116     
 DIRECTION dim            1  value   -2.5794187887074067E-005
 DIRECTION dim            2  value    7.6369312745809403E-006
 DIRECTION dim            3  value    1.1745899383339612E-005
 DIRECTION dim            4  value    1.6694557332998101E-004
 DIRECTION dim            5  value   -2.8833656260905190E-005
 DIRECTION dim            6  value   -2.7425623180541234E-005
 DIRECTION dim            7  value   -1.1993283429234589E-005
 DIRECTION dim            8  value    2.4149836831237938E-006
 DIRECTION dim            9  value    1.7069830730043398E-005
 DIRECTION dim           10  value    2.9768220183539031E-006
 DIRECTION dim           11  value    2.0922896222946991E-005
 DIRECTION dim           12  value    1.7658003176948274E-006
 DIRECTION dim           13  value   -4.4345756547524839E-005
 DIRECTION dim           14  value   -1.4036390321227399E-005
 DIRECTION dim           15  value    2.2847389227226494E-006
 DIRECTION dim           16  value    1.4483301781198550E-005
 DIRECTION dim           17  value   -1.5892985196671731E-006
 DIRECTION dim           18  value    2.6013223957644171E-005
 DIRECTION dim           19  value   -2.4422381829913530E-005
 DIRECTION dim           20  value    2.4327794605994589E-005
 DIRECTION dim           21  value    1.1498236329011144E-005
 DIRECTION dim           22  value   -1.4448953568400800E-005
 DIRECTION dim           23  value    3.9286111052488836E-005
 DIRECTION dim           24  value   -1.5946709228166748E-008
 DIRECTION dim           25  value   -1.2135831559741360E-005
 DIRECTION dim           26  value   -2.3545033544401237E-005
 DIRECTION dim           27  value   -6.2105660441599009E-005
 DIRECTION dim           28  value    8.4018904650517401E-005
 DIRECTION dim           29  value   -3.7658601486973351E-005
 DIRECTION dim           30  value    1.5204185068002583E-005
 DIRECTION dim           31  value    3.9445264136762056E-005
 DIRECTION dim           32  value    3.4339483244516263E-006
 DIRECTION dim           33  value    2.9149183849566212E-005
 DIRECTION dim           34  value   -1.4709411028350752E-004
 DIRECTION dim           35  value   -1.5653756825191625E-005
 DIRECTION dim           36  value   -6.8528657371377205E-006
 DIRECTION dim           37  value   -5.5951277547951757E-005
 DIRECTION dim           38  value    2.8482257903351408E-005
 DIRECTION dim           39  value   -2.5294205608711198E-005
 DIRECTION dim           40  value   -7.9899664506688270E-005
 DIRECTION dim           41  value    3.7042387267967283E-005
 DIRECTION dim           42  value    1.6581462419481449E-006
 DIRECTION dim           43  value   -2.4715769396689182E-005
 DIRECTION dim           44  value   -2.4653120385888516E-005
 DIRECTION dim           45  value   -2.4768148792364664E-005
 DIRECTION dim           46  value    9.4475464712830152E-008
 DIRECTION dim           47  value   -1.1216186451343586E-008
 DIRECTION dim           48  value    2.9873688604948886E-008
  Cycle:     10 Energy:      -475.567273  Gnorm:      0.004675  CPU:    0.045
 ALPHA BEFORE:   0.16015780699849239     
 XC BEFORE:   0.16659214784170839     
  ** Opt : line minimisation
left   ...       0.00000000    -475.56727297
centre ...       0.04003945    -475.56727469
right  ...       0.08007890    -475.56727581

left   ...       0.00000000    -475.56727297
centre ...       0.04003945    -475.56727469
right  ...       0.08007890    -475.56727581
new    ...       0.13607435    -475.56727639

__s__    ...       0.05599545

 ALPHA AFTER:   0.13607435076644189     
 XC AFTER:   0.16660636171911763     
 SANITY CHECK:   0.13607435076629448     
 DIRECTION dim            1  value    1.0445669833585040E-004
 DIRECTION dim            2  value    1.1648993349991843E-005
 DIRECTION dim            3  value    1.7613222612648373E-005
 DIRECTION dim            4  value    6.8100907151522942E-005
 DIRECTION dim            5  value   -4.3619625392840918E-005
 DIRECTION dim            6  value   -4.1069812212882789E-005
 DIRECTION dim            7  value   -5.9291332547079404E-005
 DIRECTION dim            8  value    4.2194893536672212E-006
 DIRECTION dim            9  value    2.6474237713853028E-005
 DIRECTION dim           10  value   -4.0650321304154404E-005
 DIRECTION dim           11  value    3.2182817408758232E-005
 DIRECTION dim           12  value    3.0604090896990925E-006
 DIRECTION dim           13  value   -3.3874232427401633E-005
 DIRECTION dim           14  value   -2.1510685421335224E-005
 DIRECTION dim           15  value    3.6968421898772169E-006
 DIRECTION dim           16  value   -3.9805479778465874E-005
 DIRECTION dim           17  value   -2.8108402766735193E-006
 DIRECTION dim           18  value    3.7781853047667860E-005
 DIRECTION dim           19  value   -5.4007592407224221E-005
 DIRECTION dim           20  value    3.7842805226828271E-005
 DIRECTION dim           21  value    1.6949255671469798E-005
 DIRECTION dim           22  value   -1.8311155581240024E-005
 DIRECTION dim           23  value    5.7508560564112360E-005
 DIRECTION dim           24  value   -1.2955544520067090E-006
 DIRECTION dim           25  value   -1.5515916509556636E-005
 DIRECTION dim           26  value   -3.4657736749345265E-005
 DIRECTION dim           27  value   -9.1676107243703075E-005
 DIRECTION dim           28  value    4.2659684361519751E-005
 DIRECTION dim           29  value   -5.7954426387446985E-005
 DIRECTION dim           30  value    2.3891161431386761E-005
 DIRECTION dim           31  value   -7.9478457429146712E-005
 DIRECTION dim           32  value    5.4516453399094515E-006
 DIRECTION dim           33  value    4.2165185561275120E-005
 DIRECTION dim           34  value   -6.1896247680162328E-005
 DIRECTION dim           35  value   -2.2748576112711102E-005
 DIRECTION dim           36  value   -1.0464995869665395E-005
 DIRECTION dim           37  value   -2.6129263487128099E-006
 DIRECTION dim           38  value    4.2602473172511897E-005
 DIRECTION dim           39  value   -3.7452254879509473E-005
 DIRECTION dim           40  value   -3.2680440075780273E-005
 DIRECTION dim           41  value    5.7742297577858721E-005
 DIRECTION dim           42  value    1.5772540573281378E-006
 DIRECTION dim           43  value   -3.4391858457666298E-005
 DIRECTION dim           44  value   -3.4258546824247392E-005
 DIRECTION dim           45  value   -3.4441152561374596E-005
 DIRECTION dim           46  value    1.4333503190160928E-007
 DIRECTION dim           47  value   -1.5976699277949704E-008
 DIRECTION dim           48  value    5.1308233835584394E-008
  Cycle:     11 Energy:      -475.567276  Gnorm:      0.004116  CPU:    0.047
 ALPHA BEFORE:   0.13607435076644189     
 XC BEFORE:   0.16660636171911763     
  ** Opt : line minimisation
left   ...       0.00000000    -475.56727639
centre ...       0.03401859    -475.56727769
right  ...       0.06803718    -475.56727892

left   ...       0.00000000    -475.56727639
centre ...       0.03401859    -475.56727769
right  ...       0.06803718    -475.56727892
new    ...       0.67642960    -475.56728960

__s__    ...       0.60839242

 ALPHA AFTER:   0.67642959975202521     
 XC AFTER:   0.16660688152452541     
 SANITY CHECK:   0.67642959971324945     
 DIRECTION dim            1  value    7.6845455608830259E-007
 DIRECTION dim            2  value    1.5996509322380712E-005
 DIRECTION dim            3  value    2.3678759181590741E-005
 DIRECTION dim            4  value   -4.2536911365002942E-005
 DIRECTION dim            5  value   -5.9222503093174911E-005
 DIRECTION dim            6  value   -5.5088419487100369E-005
 DIRECTION dim            7  value   -6.8350805167829634E-007
 DIRECTION dim            8  value    6.6770151065305748E-006
 DIRECTION dim            9  value    3.7031168378733907E-005
 DIRECTION dim           10  value    1.8881523414195488E-005
 DIRECTION dim           11  value    4.4583211917393237E-005
 DIRECTION dim           12  value    4.7990629599024580E-006
 DIRECTION dim           13  value   -4.4111364613639708E-005
 DIRECTION dim           14  value   -2.9674013103877274E-005
 DIRECTION dim           15  value    5.4180805383429774E-006
 DIRECTION dim           16  value   -4.0178348139302502E-005
 DIRECTION dim           17  value   -4.4641209223610576E-006
 DIRECTION dim           18  value    4.8727687456112316E-005
 DIRECTION dim           19  value   -4.1995567763383637E-005
 DIRECTION dim           20  value    5.3070578646210068E-005
 DIRECTION dim           21  value    2.2283417810335608E-005
 DIRECTION dim           22  value   -5.0062823176188207E-005
 DIRECTION dim           23  value    7.4963199235429391E-005
 DIRECTION dim           24  value   -3.8561251944771166E-006
 DIRECTION dim           25  value   -4.7261771602445932E-005
 DIRECTION dim           26  value   -4.5516082979696989E-005
 DIRECTION dim           27  value   -1.2076986644083714E-004
 DIRECTION dim           28  value    2.0321806198519988E-005
 DIRECTION dim           29  value   -8.0333462166643556E-005
 DIRECTION dim           30  value    3.3905439786144806E-005
 DIRECTION dim           31  value   -3.2137958011239044E-005
 DIRECTION dim           32  value    7.8539636812652674E-006
 DIRECTION dim           33  value    5.4103831177455774E-005
 DIRECTION dim           34  value   -1.0131312030166416E-005
 DIRECTION dim           35  value   -2.9372961484454224E-005
 DIRECTION dim           36  value   -1.4395598887137416E-005
 DIRECTION dim           37  value   -2.3717261394752181E-005
 DIRECTION dim           38  value    5.7117408819546577E-005
 DIRECTION dim           39  value   -4.9551344077436207E-005
 DIRECTION dim           40  value   -5.5658335025644083E-005
 DIRECTION dim           41  value    8.1190851013478356E-005
 DIRECTION dim           42  value    6.2551447741751798E-007
 DIRECTION dim           43  value   -4.1986324619475669E-005
 DIRECTION dim           44  value   -4.1771709728989192E-005
 DIRECTION dim           45  value   -4.2032319433615511E-005
 DIRECTION dim           46  value    1.9548522192373571E-007
 DIRECTION dim           47  value   -2.2482140158272772E-008
 DIRECTION dim           48  value    7.6765398577828619E-008
  Cycle:     12 Energy:      -475.567290  Gnorm:      0.003206  CPU:    0.050
 ALPHA BEFORE:   0.67642959975202521     
 XC BEFORE:   0.16660688152452541     
  ** Opt : line minimisation
left   ...       0.00000000    -475.56728960
centre ...       0.16910740    -475.56729308
right  ...       0.33821480    -475.56729553

left   ...       0.00000000    -475.56728960
centre ...       0.16910740    -475.56729308
right  ...       0.33821480    -475.56729553
new    ...       0.65129537    -475.56729731

__s__    ...       0.31308057

 ALPHA AFTER:   0.65129537059757048     
 XC AFTER:   0.16657174850654360     
 SANITY CHECK:   0.65129537059775955     
 DIRECTION dim            1  value   -5.3943294498712805E-005
 DIRECTION dim            2  value    1.4355726141342411E-005
 DIRECTION dim            3  value    1.8182234539022308E-005
 DIRECTION dim            4  value   -1.7332787263941937E-005
 DIRECTION dim            5  value   -4.8272665147403771E-005
 DIRECTION dim            6  value   -4.1279863559634034E-005
 DIRECTION dim            7  value   -4.0326137255621114E-005
 DIRECTION dim            8  value    1.1041802409506403E-005
 DIRECTION dim            9  value    3.6583526699822596E-005
 DIRECTION dim           10  value   -4.9876420206251761E-005
 DIRECTION dim           11  value    4.1597625800217109E-005
 DIRECTION dim           12  value    7.6624268463988660E-006
 DIRECTION dim           13  value    8.5409643499339794E-006
 DIRECTION dim           14  value   -2.7017152647545295E-005
 DIRECTION dim           15  value    6.7239717092510708E-006
 DIRECTION dim           16  value   -2.2531194097263000E-005
 DIRECTION dim           17  value   -7.1555618477518086E-006
 DIRECTION dim           18  value    2.5206068533563267E-005
 DIRECTION dim           19  value    8.6162459212959175E-006
 DIRECTION dim           20  value    5.2795379641298160E-005
 DIRECTION dim           21  value    1.4068205579630435E-005
 DIRECTION dim           22  value   -2.6774450173220046E-005
 DIRECTION dim           23  value    4.3802955230628421E-005
 DIRECTION dim           24  value   -1.5159078864031415E-005
 DIRECTION dim           25  value   -2.8753380789491041E-005
 DIRECTION dim           26  value   -2.8731373608829102E-005
 DIRECTION dim           27  value   -7.7908272559403283E-005
 DIRECTION dim           28  value   -6.3068020461358519E-005
 DIRECTION dim           29  value   -7.5271249825595424E-005
 DIRECTION dim           30  value    3.6096910763707508E-005
 DIRECTION dim           31  value   -1.8893970882974927E-005
 DIRECTION dim           32  value    9.3014619356265650E-006
 DIRECTION dim           33  value    2.6493437990552381E-005
 DIRECTION dim           34  value   -4.2113061390614429E-005
 DIRECTION dim           35  value   -1.5531141984763283E-005
 DIRECTION dim           36  value   -1.3035626313331167E-005
 DIRECTION dim           37  value   -1.0509547048160152E-005
 DIRECTION dim           38  value    4.3053157678121227E-005
 DIRECTION dim           39  value   -3.3416047722180672E-005
 DIRECTION dim           40  value    3.2827049263841856E-006
 DIRECTION dim           41  value    8.2231780496195309E-005
 DIRECTION dim           42  value   -8.0070660046168144E-006
 DIRECTION dim           43  value   -9.5863060399461549E-006
 DIRECTION dim           44  value   -9.4102883533126593E-006
 DIRECTION dim           45  value   -9.6661450368060467E-006
 DIRECTION dim           46  value    1.6858742007388410E-007
 DIRECTION dim           47  value   -3.1679478576216247E-008
 DIRECTION dim           48  value    8.4824959334673455E-008
  Cycle:     13 Energy:      -475.567297  Gnorm:      0.003379  CPU:    0.053
 ALPHA BEFORE:   0.65129537059757048     
 XC BEFORE:   0.16657174850654360     
  ** Opt : line minimisation
left   ...       0.00000000    -475.56729731
centre ...       0.16282384    -475.56729925
right  ...       0.32564769    -475.56729650

left   ...       0.00000000    -475.56729731
centre ...       0.16282384    -475.56729925
right  ...       0.32564769    -475.56729650
new    ...       0.14876685    -475.56729927

__s__    ...      -0.17688084

 ALPHA AFTER:   0.14876684742608956     
 XC AFTER:   0.16656681198698936     
 SANITY CHECK:   0.14876684742653579     
 DIRECTION dim            1  value   -3.3182927780207609E-005
 DIRECTION dim            2  value    1.9833373678168166E-005
 DIRECTION dim            3  value    2.0728992454619400E-005
 DIRECTION dim            4  value   -2.6368384109748076E-005
 DIRECTION dim            5  value   -5.6145063720134121E-005
 DIRECTION dim            6  value   -4.4206150991533983E-005
 DIRECTION dim            7  value   -4.9769087985401406E-005
 DIRECTION dim            8  value    2.1639076783083527E-005
 DIRECTION dim            9  value    5.2176079920512506E-005
 DIRECTION dim           10  value   -6.9462429322162287E-005
 DIRECTION dim           11  value    5.6518246996465696E-005
 DIRECTION dim           12  value    1.4679869741606136E-005
 DIRECTION dim           13  value    2.8667246799764031E-006
 DIRECTION dim           14  value   -3.6072681435565632E-005
 DIRECTION dim           15  value    1.1125109357731003E-005
 DIRECTION dim           16  value   -6.7218101661055732E-005
 DIRECTION dim           17  value   -1.2442186007401122E-005
 DIRECTION dim           18  value    1.0303400541933869E-005
 DIRECTION dim           19  value   -7.7689573131725192E-005
 DIRECTION dim           20  value    7.4026287627899606E-005
 DIRECTION dim           21  value    1.1048255478776552E-005
 DIRECTION dim           22  value    5.3057321946235835E-006
 DIRECTION dim           23  value    2.9697911644007870E-005
 DIRECTION dim           24  value   -3.4307710843320792E-005
 DIRECTION dim           25  value    2.0869819186890854E-006
 DIRECTION dim           26  value   -2.3948238790894774E-005
 DIRECTION dim           27  value   -6.5546700979078994E-005
 DIRECTION dim           28  value   -9.3566717402993597E-005
 DIRECTION dim           29  value   -1.0302379922360240E-004
 DIRECTION dim           30  value    5.4035347048067063E-005
 DIRECTION dim           31  value    3.0913543902649245E-005
 DIRECTION dim           32  value    1.6306702301810826E-005
 DIRECTION dim           33  value    8.3226800711186068E-006
 DIRECTION dim           34  value   -2.7599781937992398E-005
 DIRECTION dim           35  value   -7.5644631644741614E-006
 DIRECTION dim           36  value   -1.7987188943820363E-005
 DIRECTION dim           37  value   -6.3930517966752408E-005
 DIRECTION dim           38  value    4.7939987315655464E-005
 DIRECTION dim           39  value   -3.1477939152377581E-005
 DIRECTION dim           40  value   -3.2993989052657686E-005
 DIRECTION dim           41  value    1.1867388067417792E-004
 DIRECTION dim           42  value   -2.0443694152797807E-005
 DIRECTION dim           43  value    1.1975950375647333E-005
 DIRECTION dim           44  value    1.2188719702271911E-005
 DIRECTION dim           45  value    1.1856499666456842E-005
 DIRECTION dim           46  value    2.1457715111145722E-007
 DIRECTION dim           47  value   -4.0775702139800636E-008
 DIRECTION dim           48  value    1.2399177912458212E-007
  Cycle:     14 Energy:      -475.567299  Gnorm:      0.003168  CPU:    0.056
 ALPHA BEFORE:   0.14876684742608956     
 XC BEFORE:   0.16656681198698936     
  ** Opt : line minimisation
left   ...       0.00000000    -475.56729927
centre ...       0.03719171    -475.56730005
right  ...       0.07438342    -475.56730068

left   ...       0.00000000    -475.56729927
centre ...       0.03719171    -475.56730005
right  ...       0.07438342    -475.56730068
new    ...       0.20789724    -475.56730167

__s__    ...       0.13351382

 ALPHA AFTER:   0.20789724293590583     
 XC AFTER:   0.16655764834993803     
 SANITY CHECK:   0.20789724293662060     
 DIRECTION dim            1  value   -4.4077722830256328E-005
 DIRECTION dim            2  value    2.1344326402344173E-005
 DIRECTION dim            3  value    1.8282403849791213E-005
 DIRECTION dim            4  value   -1.8672755898549547E-005
 DIRECTION dim            5  value   -4.9261534204903154E-005
 DIRECTION dim            6  value   -3.5319039929239777E-005
 DIRECTION dim            7  value   -2.7334848551390357E-005
 DIRECTION dim            8  value    2.8837372675475944E-005
 DIRECTION dim            9  value    5.6486457769558324E-005
 DIRECTION dim           10  value   -4.7899999591162416E-005
 DIRECTION dim           11  value    5.8786213504052507E-005
 DIRECTION dim           12  value    1.9300558855081700E-005
 DIRECTION dim           13  value   -1.5516987587663705E-005
 DIRECTION dim           14  value   -3.6974663500568590E-005
 DIRECTION dim           15  value    1.3345746422920709E-005
 DIRECTION dim           16  value    2.3849857669401199E-005
 DIRECTION dim           17  value   -1.5054083694247913E-005
 DIRECTION dim           18  value   -1.0696848099578135E-005
 DIRECTION dim           19  value   -1.2226748119968371E-004
 DIRECTION dim           20  value    7.8263550633377428E-005
 DIRECTION dim           21  value    4.2202955815739834E-006
 DIRECTION dim           22  value   -3.3643576589423033E-005
 DIRECTION dim           23  value    4.6631565854123264E-006
 DIRECTION dim           24  value   -4.7931286205329943E-005
 DIRECTION dim           25  value   -3.6450073572693014E-005
 DIRECTION dim           26  value   -1.1897874237638736E-005
 DIRECTION dim           27  value   -3.2485892884218898E-005
 DIRECTION dim           28  value   -6.8640418267261775E-005
 DIRECTION dim           29  value   -1.0789327845844924E-004
 DIRECTION dim           30  value    6.0468984025249838E-005
 DIRECTION dim           31  value   -3.0818276332595669E-005
 DIRECTION dim           32  value    2.0820119303993544E-005
 DIRECTION dim           33  value   -1.5803669766820676E-005
 DIRECTION dim           34  value   -2.6831502238799741E-005
 DIRECTION dim           35  value    4.0719995236471910E-006
 DIRECTION dim           36  value   -1.9281857810591955E-005
 DIRECTION dim           37  value   -5.4931193918314613E-005
 DIRECTION dim           38  value    4.1084639860075719E-005
 DIRECTION dim           39  value   -2.0825522142094520E-005
 DIRECTION dim           40  value   -2.1021871572804537E-005
 DIRECTION dim           41  value    1.2925204900118029E-004
 DIRECTION dim           42  value   -2.9562186830994976E-005
 DIRECTION dim           43  value    3.1188732758740438E-005
 DIRECTION dim           44  value    3.1390228707048894E-005
 DIRECTION dim           45  value    3.1067285481095705E-005
 DIRECTION dim           46  value    2.0973011365289585E-007
 DIRECTION dim           47  value   -3.8620669956310484E-008
 DIRECTION dim           48  value    1.3565954015104091E-007
  Cycle:     15 Energy:      -475.567302  Gnorm:      0.002816  CPU:    0.059
 ALPHA BEFORE:   0.20789724293590583     
 XC BEFORE:   0.16655764834993803     
  ** Opt : line minimisation
left   ...       0.00000000    -475.56730167
centre ...       0.05197431    -475.56730259
right  ...       0.10394862    -475.56730343

left   ...       0.00000000    -475.56730167
centre ...       0.05197431    -475.56730259
right  ...       0.10394862    -475.56730343
new    ...       0.71259823    -475.56730819

__s__    ...       0.60864961

 ALPHA AFTER:   0.71259823379192522     
 XC AFTER:   0.16653912116859992     
 SANITY CHECK:   0.71259823379278697     
 DIRECTION dim            1  value   -2.5999476927540402E-005
 DIRECTION dim            2  value    2.1057723583359054E-005
 DIRECTION dim            3  value    1.4451793052582423E-005
 DIRECTION dim            4  value   -4.4531978205123319E-005
 DIRECTION dim            5  value   -3.5484758924592388E-005
 DIRECTION dim            6  value   -2.2860640960802468E-005
 DIRECTION dim            7  value   -3.0488605103319112E-005
 DIRECTION dim            8  value    3.2790225718381814E-005
 DIRECTION dim            9  value    5.3702233120967160E-005
 DIRECTION dim           10  value   -4.1410103359385481E-005
 DIRECTION dim           11  value    5.3872867396629425E-005
 DIRECTION dim           12  value    2.1664126344216239E-005
 DIRECTION dim           13  value   -6.5316067987334806E-005
 DIRECTION dim           14  value   -3.3398224950705281E-005
 DIRECTION dim           15  value    1.3764154557176066E-005
 DIRECTION dim           16  value   -2.7447418098893357E-005
 DIRECTION dim           17  value   -1.5013731415822546E-005
 DIRECTION dim           18  value   -2.8592730917817678E-005
 DIRECTION dim           19  value   -2.9135770264324205E-005
 DIRECTION dim           20  value    7.1090102503408090E-005
 DIRECTION dim           21  value   -2.6358639073294552E-006
 DIRECTION dim           22  value   -3.2946508773189776E-005
 DIRECTION dim           23  value   -1.7857670195789241E-005
 DIRECTION dim           24  value   -5.4595234699953647E-005
 DIRECTION dim           25  value   -3.3798542079358429E-005
 DIRECTION dim           26  value   -4.7985172805442321E-007
 DIRECTION dim           27  value    7.7746222841413004E-007
 DIRECTION dim           28  value   -9.0979071258031347E-006
 DIRECTION dim           29  value   -9.9532383009835919E-005
 DIRECTION dim           30  value    5.8659349175835044E-005
 DIRECTION dim           31  value   -4.0593750673244766E-005
 DIRECTION dim           32  value    2.3667026424820796E-005
 DIRECTION dim           33  value   -3.5342345511339755E-005
 DIRECTION dim           34  value   -4.5050104123479381E-005
 DIRECTION dim           35  value    1.3910734645188459E-005
 DIRECTION dim           36  value   -1.8856183850195532E-005
 DIRECTION dim           37  value   -4.9405078521250427E-005
 DIRECTION dim           38  value    3.1319292555430547E-005
 DIRECTION dim           39  value   -9.7602833775091427E-006
 DIRECTION dim           40  value   -2.9545318837895792E-005
 DIRECTION dim           41  value    1.2262893446691764E-004
 DIRECTION dim           42  value   -3.3839368279225616E-005
 DIRECTION dim           43  value    3.8149072844777739E-005
 DIRECTION dim           44  value    3.8322875030471641E-005
 DIRECTION dim           45  value    3.8058524954851108E-005
 DIRECTION dim           46  value    1.7801575653711263E-007
 DIRECTION dim           47  value   -3.1869218595885093E-008
 DIRECTION dim           48  value    1.2928423303613486E-007
  Cycle:     16 Energy:      -475.567308  Gnorm:      0.002099  CPU:    0.061
 ALPHA BEFORE:   0.71259823379192522     
 XC BEFORE:   0.16653912116859992     
  ** Opt : line minimisation
left   ...       0.00000000    -475.56730819
centre ...       0.17814956    -475.56730952
right  ...       0.35629912    -475.56730989

left   ...       0.00000000    -475.56730819
centre ...       0.17814956    -475.56730952
right  ...       0.35629912    -475.56730989
new    ...       0.33579346    -475.56730989

__s__    ...      -0.02050565

 ALPHA AFTER:   0.33579346477895894     
 XC AFTER:   0.16652591119172747     
 SANITY CHECK:   0.33579346477901184     
 DIRECTION dim            1  value   -3.9339588937955198E-005
 DIRECTION dim            2  value    1.7344803669246653E-005
 DIRECTION dim            3  value    9.6963548252253319E-006
 DIRECTION dim            4  value    1.1222395293558044E-005
 DIRECTION dim            5  value   -7.5088905358689307E-006
 DIRECTION dim            6  value   -6.8049589947286162E-006
 DIRECTION dim            7  value   -2.4697435154827981E-005
 DIRECTION dim            8  value    2.7332553909123926E-005
 DIRECTION dim            9  value    3.3870147118510990E-005
 DIRECTION dim           10  value   -9.6776079017486239E-006
 DIRECTION dim           11  value    3.2908651297531346E-005
 DIRECTION dim           12  value    1.7510928909378674E-005
 DIRECTION dim           13  value   -1.0528182778234325E-007
 DIRECTION dim           14  value   -1.9709243754005584E-005
 DIRECTION dim           15  value    9.2267410051477815E-006
 DIRECTION dim           16  value   -5.8763622171367092E-005
 DIRECTION dim           17  value   -7.5122146114791322E-006
 DIRECTION dim           18  value   -2.9469582012165881E-005
 DIRECTION dim           19  value   -2.0447458688902533E-005
 DIRECTION dim           20  value    3.5175707590840150E-005
 DIRECTION dim           21  value   -6.2768883320015429E-006
 DIRECTION dim           22  value   -3.8554329684151070E-005
 DIRECTION dim           23  value   -2.1622968299557334E-005
 DIRECTION dim           24  value   -3.9574686885903730E-005
 DIRECTION dim           25  value   -3.5958662168779434E-005
 DIRECTION dim           26  value    2.3511743231428536E-006
 DIRECTION dim           27  value    1.6664638938916849E-005
 DIRECTION dim           28  value   -3.2114454111697966E-006
 DIRECTION dim           29  value   -6.0485323286166115E-005
 DIRECTION dim           30  value    3.5289100427531736E-005
 DIRECTION dim           31  value   -3.7945230538765964E-005
 DIRECTION dim           32  value    2.2319891902866491E-005
 DIRECTION dim           33  value   -3.2399647982154559E-005
 DIRECTION dim           34  value    5.4289526321771486E-006
 DIRECTION dim           35  value    1.4078932451651943E-005
 DIRECTION dim           36  value   -1.5119568999513337E-005
 DIRECTION dim           37  value   -1.4696910565950606E-005
 DIRECTION dim           38  value    2.0700644904895021E-005
 DIRECTION dim           39  value   -4.7360666762510141E-006
 DIRECTION dim           40  value   -3.7817629812108859E-005
 DIRECTION dim           41  value    7.3135068173291404E-005
 DIRECTION dim           42  value   -2.2769348366068053E-005
 DIRECTION dim           43  value    4.7928186200976098E-006
 DIRECTION dim           44  value    4.8635678257163959E-006
 DIRECTION dim           45  value    4.7638216308057519E-006
 DIRECTION dim           46  value    8.3070662337987462E-008
 DIRECTION dim           47  value   -1.6656048425536385E-008
 DIRECTION dim           48  value    8.1555475304963910E-008
  Cycle:     17 Energy:      -475.567310  Gnorm:      0.001564  CPU:    0.064
 ALPHA BEFORE:   0.33579346477895894     
 XC BEFORE:   0.16652591119172747     
  ** Opt : line minimisation
left   ...       0.00000000    -475.56730989
centre ...       0.08394837    -475.56731033
right  ...       0.16789673    -475.56731068

left   ...       0.00000000    -475.56730989
centre ...       0.08394837    -475.56731033
right  ...       0.16789673    -475.56731068
new    ...       0.49200812    -475.56731128

__s__    ...       0.32411139

 ALPHA AFTER:   0.49200812088994939     
 XC AFTER:   0.16652660332324387     
 SANITY CHECK:   0.49200812088713902     
 DIRECTION dim            1  value    1.4067481552082463E-006
 DIRECTION dim            2  value    1.5355621927419735E-005
 DIRECTION dim            3  value    7.7362249500021733E-006
 DIRECTION dim            4  value   -1.6105340400832443E-005
 DIRECTION dim            5  value    9.8817377273439512E-006
 DIRECTION dim            6  value    1.4134465992260515E-006
 DIRECTION dim            7  value   -2.3100677799375605E-005
 DIRECTION dim            8  value    2.3220273810521160E-005
 DIRECTION dim            9  value    2.1725768768961860E-005
 DIRECTION dim           10  value   -3.7128287989993213E-006
 DIRECTION dim           11  value    2.0773756624954990E-005
 DIRECTION dim           12  value    1.4471479275317473E-005
 DIRECTION dim           13  value    1.1086094563087584E-005
 DIRECTION dim           14  value   -1.1236815233737115E-005
 DIRECTION dim           15  value    6.1583347617045630E-006
 DIRECTION dim           16  value   -1.7314729172224510E-005
 DIRECTION dim           17  value   -2.8264815726168734E-006
 DIRECTION dim           18  value   -2.6092501434521584E-005
 DIRECTION dim           19  value   -2.0224721224181033E-005
 DIRECTION dim           20  value    1.2254010637063192E-005
 DIRECTION dim           21  value   -7.1290527919582107E-006
 DIRECTION dim           22  value   -3.5528717444429769E-005
 DIRECTION dim           23  value   -1.8995556648907212E-005
 DIRECTION dim           24  value   -2.8169652857891331E-005
 DIRECTION dim           25  value   -3.2887745099844195E-005
 DIRECTION dim           26  value    1.3199931493924207E-006
 DIRECTION dim           27  value    1.8775234256541996E-005
 DIRECTION dim           28  value   -1.0848721549847949E-005
 DIRECTION dim           29  value   -3.6336964170633638E-005
 DIRECTION dim           30  value    1.9768232395355178E-005
 DIRECTION dim           31  value   -4.7330849050361101E-006
 DIRECTION dim           32  value    2.1322952414744608E-005
 DIRECTION dim           33  value   -2.5948705289970357E-005
 DIRECTION dim           34  value   -2.8563226785958411E-005
 DIRECTION dim           35  value    1.2413984819019355E-005
 DIRECTION dim           36  value   -1.3187401942717602E-005
 DIRECTION dim           37  value    1.2603126391158838E-005
 DIRECTION dim           38  value    1.6675074268948463E-005
 DIRECTION dim           39  value   -4.5982716799084928E-006
 DIRECTION dim           40  value   -1.9339961615864945E-005
 DIRECTION dim           41  value    4.1923125231806423E-005
 DIRECTION dim           42  value   -1.4605826173162206E-005
 DIRECTION dim           43  value   -1.5443462532413613E-005
 DIRECTION dim           44  value   -1.5437660446656892E-005
 DIRECTION dim           45  value   -1.5438328593232773E-005
 DIRECTION dim           46  value    2.3996896696863303E-008
 DIRECTION dim           47  value   -8.2515475535620305E-009
 DIRECTION dim           48  value    5.1995612212011275E-008
  Cycle:     18 Energy:      -475.567311  Gnorm:      0.001969  CPU:    0.067
 Perform trimming
 ALPHA BEFORE:   0.49200812088994939     
 XC BEFORE:   0.16652660332324387     
  ** Opt : line minimisation
left   ...       0.00000000    -475.56731128
centre ...       0.12300203    -475.56731165
right  ...       0.24600406    -475.56731086

left   ...       0.00000000    -475.56731128
centre ...       0.12300203    -475.56731165
right  ...       0.24600406    -475.56731086
new    ...       0.10058268    -475.56731167

__s__    ...      -0.14542138

 ALPHA AFTER:   0.10058268239434515     
 XC AFTER:   0.16652466116731390     
 SANITY CHECK:   0.10058268239477582     
 DIRECTION dim            1  value   -1.9309048871309808E-005
 DIRECTION dim            2  value    2.5164636040836253E-005
 DIRECTION dim            3  value    1.2950588868562610E-005
 DIRECTION dim            4  value   -3.1645665337534063E-005
 DIRECTION dim            5  value    2.6245235036440645E-005
 DIRECTION dim            6  value    5.2328777223657350E-006
 DIRECTION dim            7  value   -1.8187584058040010E-005
 DIRECTION dim            8  value    3.6560031067884636E-005
 DIRECTION dim            9  value    3.1290102366786211E-005
 DIRECTION dim           10  value    1.2295017376572566E-006
 DIRECTION dim           11  value    3.0576755994803874E-005
 DIRECTION dim           12  value    2.2565427598900764E-005
 DIRECTION dim           13  value   -3.8794701720257133E-007
 DIRECTION dim           14  value   -1.4622953915777796E-005
 DIRECTION dim           15  value    8.7220452104916145E-006
 DIRECTION dim           16  value   -4.6805089137488647E-005
 DIRECTION dim           17  value   -3.1107668131394362E-006
 DIRECTION dim           18  value   -3.9166034054083315E-005
 DIRECTION dim           19  value   -1.8569236367019590E-005
 DIRECTION dim           20  value    9.2647851865400386E-006
 DIRECTION dim           21  value   -1.1180299620312974E-005
 DIRECTION dim           22  value   -3.0355562069597208E-005
 DIRECTION dim           23  value   -2.7069091614422379E-005
 DIRECTION dim           24  value   -4.0363196587662740E-005
 DIRECTION dim           25  value   -2.8293177400197097E-005
 DIRECTION dim           26  value   -4.1107044731253024E-007
 DIRECTION dim           27  value    2.5696369272283673E-005
 DIRECTION dim           28  value   -1.7301246513642120E-005
 DIRECTION dim           29  value   -4.9416116378129101E-005
 DIRECTION dim           30  value    2.4737646468658221E-005
 DIRECTION dim           31  value    4.1469193137339698E-005
 DIRECTION dim           32  value    3.5256437186553570E-005
 DIRECTION dim           33  value   -3.7036562343052274E-005
 DIRECTION dim           34  value   -4.8459645059561652E-005
 DIRECTION dim           35  value    1.9297658213103445E-005
 DIRECTION dim           36  value   -2.1713421366693064E-005
 DIRECTION dim           37  value   -1.2771338113676278E-005
 DIRECTION dim           38  value    2.8406526756666730E-005
 DIRECTION dim           39  value   -1.0264511008707453E-005
 DIRECTION dim           40  value   -4.6511566991494082E-005
 DIRECTION dim           41  value    5.5802508701401524E-005
 DIRECTION dim           42  value   -2.0069353451461865E-005
 DIRECTION dim           43  value   -2.9370159542218685E-005
 DIRECTION dim           44  value   -2.9386390426429152E-005
 DIRECTION dim           45  value   -2.9340697565239255E-005
 DIRECTION dim           46  value    1.1197353435709800E-008
 DIRECTION dim           47  value   -1.0495396589905011E-008
 DIRECTION dim           48  value    7.1535447209006589E-008
  Cycle:     19 Energy:      -475.567312  Gnorm:      0.000850  CPU:    0.070
 ALPHA BEFORE:   0.10058268239434515     
 XC BEFORE:   0.16652466116731390     
  ** Opt : line minimisation
left   ...       0.00000000    -475.56731167
centre ...       0.02514567    -475.56731171
right  ...       0.05029134    -475.56731174

left   ...       0.00000000    -475.56731167
centre ...       0.02514567    -475.56731171
right  ...       0.05029134    -475.56731174
new    ...       0.32702287    -475.56731194

__s__    ...       0.27673153

 ALPHA AFTER:   0.32702287261089213     
 XC AFTER:   0.16652406548613910     
 SANITY CHECK:   0.32702287260370300     
 DIRECTION dim            1  value   -1.8215275587924913E-006
 DIRECTION dim            2  value    4.7220989462199696E-006
 DIRECTION dim            3  value    2.9317880088994958E-006
 DIRECTION dim            4  value    3.2611860136190508E-006
 DIRECTION dim            5  value    1.5056593929870205E-005
 DIRECTION dim            6  value    3.4486988081370525E-006
 DIRECTION dim            7  value    3.8906797292800116E-006
 DIRECTION dim            8  value    5.1198610900145376E-006
 DIRECTION dim            9  value    1.8780664535466255E-006
 DIRECTION dim           10  value   -8.1320370876591947E-006
 DIRECTION dim           11  value    2.9050085410522641E-006
 DIRECTION dim           12  value    2.9401245472581060E-006
 DIRECTION dim           13  value   -1.1213866283210927E-005
 DIRECTION dim           14  value    1.0719160768400578E-006
 DIRECTION dim           15  value    2.3786654666855031E-007
 DIRECTION dim           16  value    7.3213144613475007E-006
 DIRECTION dim           17  value    5.7146073968003325E-007
 DIRECTION dim           18  value   -2.7334571806775661E-006
 DIRECTION dim           19  value   -1.3819118465922091E-006
 DIRECTION dim           20  value   -8.7051344610711011E-006
 DIRECTION dim           21  value   -1.1538050098267672E-006
 DIRECTION dim           22  value    6.6635211928785667E-006
 DIRECTION dim           23  value    3.2551291804863731E-008
 DIRECTION dim           24  value   -1.3765577819107581E-006
 DIRECTION dim           25  value    4.3661550851460304E-006
 DIRECTION dim           26  value   -3.2172485085611154E-006
 DIRECTION dim           27  value   -2.5089555467642024E-006
 DIRECTION dim           28  value   -6.6104015955107035E-006
 DIRECTION dim           29  value    7.3656208374227928E-007
[...]

left   ...       0.00000000    -475.56731380
centre ...       0.11918466    -475.56731402
right  ...       0.23836932    -475.56731413
new    ...       0.31175684    -475.56731415

__s__    ...       0.07338752

 ALPHA AFTER:   0.31175684334425247     
 XC AFTER:   0.16651810044818374     
 SANITY CHECK:   0.31175684333100556     
 DIRECTION dim            1  value   -1.9964096753953409E-006
 DIRECTION dim            2  value    2.8266266937292867E-005
 DIRECTION dim            3  value    1.4732679984843298E-005
 DIRECTION dim            4  value   -1.2862464268699287E-005
 DIRECTION dim            5  value    8.7401626836018027E-005
 DIRECTION dim            6  value    1.9686182384663942E-005
 DIRECTION dim            7  value    4.0774890977901548E-006
 DIRECTION dim            8  value    3.2051688000384991E-005
 DIRECTION dim            9  value    2.1685083184542543E-005
 DIRECTION dim           10  value   -4.2315943589469493E-006
 DIRECTION dim           11  value    3.4300250098688321E-005
 DIRECTION dim           12  value    1.6441901787961146E-005
 DIRECTION dim           13  value   -1.6241200229304002E-005
 DIRECTION dim           14  value    1.3193338327393306E-005
 DIRECTION dim           15  value    1.6215548999277584E-006
 DIRECTION dim           16  value    8.3118896766926809E-006
 DIRECTION dim           17  value   -9.0908474494143583E-006
 DIRECTION dim           18  value   -1.7993098603165192E-005
 DIRECTION dim           19  value   -2.2693532669269876E-005
 DIRECTION dim           20  value   -2.0971300191223126E-005
 DIRECTION dim           21  value   -4.6340101177823368E-006
 DIRECTION dim           22  value    3.1031661220868691E-006
 DIRECTION dim           23  value   -1.1506407908402417E-005
 DIRECTION dim           24  value   -1.7700895696632037E-005
 DIRECTION dim           25  value    9.4316947782640076E-007
 DIRECTION dim           26  value   -1.3136859873380626E-005
 DIRECTION dim           27  value   -1.8296294342868979E-005
 DIRECTION dim           28  value   -5.5673252189514321E-006
 DIRECTION dim           29  value    1.2722173641880147E-005
 DIRECTION dim           30  value   -2.4060923127405331E-005
 DIRECTION dim           31  value   -1.2775587487790849E-006
 DIRECTION dim           32  value    3.4828852195822969E-005
 DIRECTION dim           33  value   -1.5125713640176970E-005
 DIRECTION dim           34  value   -1.3812212627030611E-005
 DIRECTION dim           35  value    2.8064914725343709E-005
 DIRECTION dim           36  value   -2.2412687178311847E-005
 DIRECTION dim           37  value   -1.3568600023982375E-005
 DIRECTION dim           38  value    3.9096220035901263E-005
 DIRECTION dim           39  value   -2.5784326804463881E-005
 DIRECTION dim           40  value   -2.9886554338375888E-006
 DIRECTION dim           41  value    1.8979603883685613E-005
 DIRECTION dim           42  value   -1.5304277156523471E-005
 DIRECTION dim           43  value    6.5659220326447856E-006
 DIRECTION dim           44  value    6.4719807664855980E-006
 DIRECTION dim           45  value    6.6444502773024768E-006
 DIRECTION dim           46  value   -8.9568323384728260E-008
 DIRECTION dim           47  value    3.2453102997680548E-009
 DIRECTION dim           48  value    1.7085307753738595E-009
  Cycle:     27 Energy:      -475.567314  Gnorm:      0.000638  CPU:    0.093
 ALPHA BEFORE:   0.31175684334425247     
 XC BEFORE:   0.16651810044818374     
  ** Opt : line minimisation
left   ...       0.00000000    -475.56731415
centre ...       0.07793921    -475.56731421
right  ...       0.15587842    -475.56731423

left   ...       0.00000000    -475.56731415
centre ...       0.07793921    -475.56731421
right  ...       0.15587842    -475.56731423
new    ...       0.16525397    -475.56731423

__s__    ...       0.00937555

 ALPHA AFTER:   0.16525397092286870     
 XC AFTER:   0.16651883209679771     
 SANITY CHECK:   0.16525397092920077     
 DIRECTION dim            1  value    4.4274192617456698E-006
 DIRECTION dim            2  value    1.3981273978286720E-005
 DIRECTION dim            3  value    6.3699032009668648E-006
 DIRECTION dim            4  value   -2.3907689806390370E-006
 DIRECTION dim            5  value    3.4290222719337194E-005
 DIRECTION dim            6  value    6.4283737627154206E-006
 DIRECTION dim            7  value   -8.9208448595381382E-006
 DIRECTION dim            8  value    1.5869589394386822E-005
 DIRECTION dim            9  value    1.1287837362895944E-005
 DIRECTION dim           10  value   -1.0016434714388849E-005
 DIRECTION dim           11  value    1.8044704072640534E-005
 DIRECTION dim           12  value    7.3428802587327654E-006
 DIRECTION dim           13  value    7.6212945356690251E-006
 DIRECTION dim           14  value    7.0172686771032740E-006
 DIRECTION dim           15  value    5.8917986665444924E-007
 DIRECTION dim           16  value   -8.3600196100773131E-006
 DIRECTION dim           17  value   -3.7908014180017657E-006
 DIRECTION dim           18  value   -8.2369886917280450E-006
 DIRECTION dim           19  value   -8.7043846450384851E-006
 DIRECTION dim           20  value   -1.8849077588550577E-006
 DIRECTION dim           21  value   -1.6539274159334333E-006
 DIRECTION dim           22  value    2.9706910194285901E-006
 DIRECTION dim           23  value   -4.7793541989734514E-006
 DIRECTION dim           24  value   -1.0164657053254293E-005
 DIRECTION dim           25  value    2.9996476416519091E-006
 DIRECTION dim           26  value   -6.2974651070703486E-006
 DIRECTION dim           27  value   -8.6385224009708254E-006
 DIRECTION dim           28  value   -1.2912315044331012E-005
 DIRECTION dim           29  value    7.1610442044564597E-006
 DIRECTION dim           30  value   -1.1888630907272118E-005
 DIRECTION dim           31  value   -6.7964846067538241E-007
 DIRECTION dim           32  value    1.5972836024942233E-005
 DIRECTION dim           33  value   -8.3490844504720679E-006
 DIRECTION dim           34  value   -3.3321743255685780E-006
 DIRECTION dim           35  value    1.3279466948696965E-005
 DIRECTION dim           36  value   -9.5973665942380522E-006
 DIRECTION dim           37  value    1.1886065848394987E-006
 DIRECTION dim           38  value    1.8204565457190447E-005
 DIRECTION dim           39  value   -1.1034546434721828E-005
 DIRECTION dim           40  value    3.5381691451549266E-006
 DIRECTION dim           41  value    1.4780221457989033E-005
 DIRECTION dim           42  value   -8.8153655231756830E-006
 DIRECTION dim           43  value    1.4080337368196133E-006
 DIRECTION dim           44  value    1.3868640343697381E-006
 DIRECTION dim           45  value    1.4237674864200617E-006
 DIRECTION dim           46  value   -2.1555026527968767E-008
 DIRECTION dim           47  value    3.1841116230937943E-010
 DIRECTION dim           48  value    2.0354568786707303E-009
  Cycle:     28 Energy:      -475.567314  Gnorm:      0.000725  CPU:    0.095
 ALPHA BEFORE:   0.16525397092286870     
 XC BEFORE:   0.16651883209679771     
  ** Opt : line minimisation
left   ...       0.00000000    -475.56731423
centre ...       0.04131349    -475.56731427
right  ...       0.08262699    -475.56731431

left   ...       0.00000000    -475.56731423
centre ...       0.04131349    -475.56731427
right  ...       0.08262699    -475.56731431
new    ...       0.29674750    -475.56731441

__s__    ...       0.21412051

 ALPHA AFTER:   0.29674749546669854     
 XC AFTER:   0.16651388707120646     
 SANITY CHECK:   0.29674749546642637     
 DIRECTION dim            1  value   -1.6664085347999201E-005
 DIRECTION dim            2  value    2.0270553517062579E-005
 DIRECTION dim            3  value    8.4126668306732210E-006
 DIRECTION dim            4  value    2.6104524970573503E-006
 DIRECTION dim            5  value    4.1345602236817772E-005
 DIRECTION dim            6  value    6.1850639019758308E-006
 DIRECTION dim            7  value   -8.4375939288923826E-006
 DIRECTION dim            8  value    2.2999584642925246E-005
 DIRECTION dim            9  value    1.6694962209569681E-005
 DIRECTION dim           10  value   -7.1062268703192324E-006
 DIRECTION dim           11  value    2.6915784276937040E-005
 DIRECTION dim           12  value    9.9041946392574486E-006
 DIRECTION dim           13  value    1.7537029851407098E-005
 DIRECTION dim           14  value    1.0542039134775358E-005
 DIRECTION dim           15  value    6.4548713546205608E-007
 DIRECTION dim           16  value   -2.9291012281547837E-006
 DIRECTION dim           17  value   -4.5517262077493513E-006
 DIRECTION dim           18  value   -1.1327565393648156E-005
 DIRECTION dim           19  value   -1.2507383999212548E-006
 DIRECTION dim           20  value    4.7356610494791732E-006
 DIRECTION dim           21  value   -1.8360136283437634E-006
 DIRECTION dim           22  value   -5.9904757509923220E-006
 DIRECTION dim           23  value   -5.8066839998526783E-006
 DIRECTION dim           24  value   -1.5878732724386546E-005
 DIRECTION dim           25  value   -5.0123781184776716E-006
 DIRECTION dim           26  value   -9.0122802387077813E-006
 DIRECTION dim           27  value   -1.2105708060067404E-005
 DIRECTION dim           28  value   -1.8377535895903486E-005
 DIRECTION dim           29  value    1.1077860752714992E-005
 DIRECTION dim           30  value   -1.7144963721715641E-005
 DIRECTION dim           31  value    5.8764236042026203E-006
 DIRECTION dim           32  value    2.2091657162759996E-005
 DIRECTION dim           33  value   -1.2689241730951750E-005
 DIRECTION dim           34  value   -6.0467198832065366E-006
 DIRECTION dim           35  value    1.8448053209943853E-005
 DIRECTION dim           36  value   -1.2577698671079289E-005
 DIRECTION dim           37  value    3.1893688385615974E-006
 DIRECTION dim           38  value    2.5391992480571981E-005
 DIRECTION dim           39  value   -1.4524161059781070E-005
 DIRECTION dim           40  value    3.4169325288294321E-006
 DIRECTION dim           41  value    2.5993546322992765E-005
 DIRECTION dim           42  value   -1.3644587323739339E-005
 DIRECTION dim           43  value    2.3103805096732979E-007
 DIRECTION dim           44  value    2.2244858783699745E-007
 DIRECTION dim           45  value    2.3329331602622547E-007
 DIRECTION dim           46  value   -1.0977660893896645E-008
 DIRECTION dim           47  value   -5.8168529790119612E-010
 DIRECTION dim           48  value    3.8512059033761256E-009
  Cycle:     29 Energy:      -475.567314  Gnorm:      0.000506  CPU:    0.098
 ALPHA BEFORE:   0.29674749546669854     
 XC BEFORE:   0.16651388707120646     
  ** Opt : line minimisation
left   ...       0.00000000    -475.56731441
centre ...       0.07418687    -475.56731444
right  ...       0.14837375    -475.56731447

left   ...       0.00000000    -475.56731441
centre ...       0.07418687    -475.56731444
right  ...       0.14837375    -475.56731447
new    ...       0.25493094    -475.56731448

__s__    ...       0.10655719

 ALPHA AFTER:   0.25493094039350017     
 XC AFTER:   0.16651595955990162     
 SANITY CHECK:   0.25493094039568287     
 DIRECTION dim            1  value    8.1296083242888350E-006
 DIRECTION dim            2  value    2.2598120862172461E-006
 DIRECTION dim            3  value    1.2599994494250791E-007
 DIRECTION dim            4  value   -5.3943117537073707E-006
 DIRECTION dim            5  value   -4.4884181529644231E-006
 DIRECTION dim            6  value   -2.8529288859008749E-006
 DIRECTION dim            7  value   -7.1959749885871903E-007
 DIRECTION dim            8  value    2.4909461177413813E-006
 DIRECTION dim            9  value    1.6772406559533760E-006
 DIRECTION dim           10  value    1.3204081654562119E-006
 DIRECTION dim           11  value    3.1723397953779594E-006
 DIRECTION dim           12  value    2.6856204752767509E-007
 DIRECTION dim           13  value   -8.7881372994232425E-006
 DIRECTION dim           14  value    1.3580387516868044E-006
 DIRECTION dim           15  value   -1.8658012553067826E-007
 DIRECTION dim           16  value   -3.4466340304312704E-006
 DIRECTION dim           17  value    1.3331729198650554E-006
 DIRECTION dim           18  value   -6.4484435487389206E-007
 DIRECTION dim           19  value    1.0258870618719396E-005
 DIRECTION dim           20  value    7.4036270770147100E-006
 DIRECTION dim           21  value    3.1001459726459642E-007
 DIRECTION dim           22  value   -2.8743952557884435E-006
 DIRECTION dim           23  value    1.3464081735720423E-006
 DIRECTION dim           24  value   -2.5201853808557340E-006
 DIRECTION dim           25  value   -2.4351841255251408E-006
 DIRECTION dim           26  value   -1.0108722118024549E-006
 DIRECTION dim           27  value   -8.2899465088906917E-007
 DIRECTION dim           28  value    8.5875299165807860E-006
 DIRECTION dim           29  value    1.7063662033756125E-006
 DIRECTION dim           30  value   -1.6037960338986108E-006
 DIRECTION dim           31  value   -2.8310443422951582E-006
 DIRECTION dim           32  value    1.6067868237933482E-006
 DIRECTION dim           33  value   -1.4347946322367002E-006
 DIRECTION dim           34  value    1.9054975396967838E-006
 DIRECTION dim           35  value    5.4709347433382920E-007
 DIRECTION dim           36  value   -1.0959067386959086E-007
 DIRECTION dim           37  value   -8.0116036060960987E-008
 DIRECTION dim           38  value    1.9089507603498076E-006
 DIRECTION dim           39  value   -4.0344950213418354E-007
 DIRECTION dim           40  value   -2.9550988063329801E-006
 DIRECTION dim           41  value    6.5941923112556626E-006
 DIRECTION dim           42  value   -1.6336294450047651E-006
 DIRECTION dim           43  value   -1.6654001281629639E-006
 DIRECTION dim           44  value   -1.6458920204235339E-006
 DIRECTION dim           45  value   -1.6836169058621619E-006
 DIRECTION dim           46  value    1.8036508934586481E-008
 DIRECTION dim           47  value   -1.0705867829206429E-009
 DIRECTION dim           48  value    1.1507535785367597E-009


  **** Optimisation achieved ****


  Final energy =    -475.56731448 eV
  Final Gnorm  =       0.00051149

  Components of energy : 

--------------------------------------------------------------------------------
  Interatomic potentials     =          65.00930956 eV    
  Monopole - monopole (real) =        -237.15330180 eV    
  Monopole - monopole (recip)=        -303.42332225 eV    
  Monopole - monopole (total)=        -540.57662404 eV    
--------------------------------------------------------------------------------
  Total lattice energy       =        -475.56731448 eV    
--------------------------------------------------------------------------------
  Total lattice energy       =          -45884.9761 kJ/(mole unit cells)
--------------------------------------------------------------------------------

  Final fractional coordinates of atoms :

--------------------------------------------------------------------------------
   No.  Atomic        x           y          z          Radius
        Label       (Frac)      (Frac)     (Frac)       (Angs) 
--------------------------------------------------------------------------------
     1  Sr    c     0.999850    0.000360    0.999990    0.000000
     2  Ti    c     0.166516    0.500154    0.500055    0.000000
     3  O     c     0.999849    0.500162    0.500084    0.000000
     4  O     c     0.166515    0.000140    0.500045    0.000000
     5  O     c     0.166515    0.500135    0.000059    0.000000
     6  Sr    c     0.333183    0.000118    0.000081    0.000000
     7  Ti    c     0.499849    0.500110    0.500101    0.000000
     8  O     c     0.333184    0.500102    0.500078    0.000000
     9  O     c     0.499849    0.000110    0.500116    0.000000
    10  O     c     0.499849    0.500112    0.000102    0.000000
    11  Sr    c     0.666515    0.000115    0.000105    0.000000
    12  Ti    c     0.833183    0.500155    0.500081    0.000000
    13  O     c     0.666516    0.500129    0.500091    0.000000
    14  O     c     0.833182    0.000140    0.500085    0.000000
    15  O     c     0.833183    0.500119    0.000086    0.000000
--------------------------------------------------------------------------------

  Final Cartesian lattice vectors (Angstroms) :

       11.869496   -0.000000    0.000000
       -0.000000    3.956498   -0.000000
        0.000000   -0.000000    3.956499


  Final cell parameters and derivatives :

--------------------------------------------------------------------------------
       a           11.869496 Angstrom     dE/de1(xx)     0.001200 eV/strain
       b            3.956498 Angstrom     dE/de2(yy)     0.001182 eV/strain
       c            3.956499 Angstrom     dE/de3(zz)     0.001217 eV/strain
       alpha       90.000000 Degrees      dE/de4(yz)    -0.000017 eV/strain
       beta        90.000000 Degrees      dE/de5(xz)     0.000001 eV/strain
       gamma       90.000000 Degrees      dE/de6(xy)    -0.000001 eV/strain
--------------------------------------------------------------------------------

  Primitive cell volume =           185.803661 Angs**3

  Density of cell =      4.919932 g/cm**3

  Non-primitive cell volume =           185.803661 Angs**3


  Final internal derivatives :

--------------------------------------------------------------------------------
   No.  Atomic          a             b             c           Radius
        Label          (eV)          (eV)          (eV)        (eV/Angs)
--------------------------------------------------------------------------------
      1 Sr    c       0.000000      0.000000      0.000000      0.000000
      2 Ti    c       0.009859     -0.002225     -0.000132      0.000000
      3 O     c      -0.005593      0.004096      0.002734      0.000000
      4 O     c      -0.007047     -0.002455     -0.001608      0.000000
      5 O     c      -0.008059     -0.003141     -0.000257      0.000000
      6 Sr    c      -0.001178     -0.001368      0.000188      0.000000
      7 Ti    c      -0.008214     -0.001358      0.000701      0.000000
      8 O     c       0.008957     -0.007046     -0.000275      0.000000
      9 O     c       0.002985     -0.001364      0.002418      0.000000
     10 O     c       0.002774      0.000910      0.000862      0.000000
     11 Sr    c      -0.003790     -0.001699      0.001589      0.000000
     12 Ti    c       0.000744     -0.001641      0.001384      0.000000
     13 O     c       0.001092     -0.000590      0.000173      0.000000
     14 O     c       0.000766     -0.001929      0.000483      0.000000
     15 O     c       0.002214     -0.006349      0.001556      0.000000
--------------------------------------------------------------------------------
  Maximum abs         0.009859      0.007046      0.002734      0.000000
--------------------------------------------------------------------------------


  Time to end of optimisation =       0.1011 seconds

 Exiting ------OPTIONS------

  Peak dynamic memory used =       0.55 MB 


  Timing analysis for GULP :

--------------------------------------------------------------------------------
  Task / Subroutine                                          Time (Seconds)
--------------------------------------------------------------------------------
  Calculation of reciprocal space energy and derivatives          0.0111
  Calculation of real space energy and derivatives                0.0836
--------------------------------------------------------------------------------
  Total CPU time                                                  0.1011
--------------------------------------------------------------------------------


  Job Finished at 13:26.38 21st February   2020                               

