********************************************************************************
*                       GENERAL UTILITY LATTICE PROGRAM                        *
*                                 Julian Gale                                  *
*                       Curtin Institute for Computation                       *
*                           Department of Chemistry                            *
*                    Curtin University, Western Australia                      *
********************************************************************************
* Version = 5.1.1 * Last modified =  25th August 2019                          *
********************************************************************************
*  optimise     - perform optimisation run                                     *
*  conp         - constant pressure calculation                                *
*  nosymmetry   - turn off symmetry after initial structure generation         *
*  full         - generate full unit cell when symmetry is removed             *
*  conjugate    - use conjugate gradients minimiser                            *
********************************************************************************
* ASE calculation                                                              *
********************************************************************************


  Job Started  at 13:26.45 21st February   2020                               

  Number of CPUs =     1


  Total number of configurations input =      1

********************************************************************************
*  Input for Configuration =   1                                               *
********************************************************************************

  Formula = Sr3Ti3O9                                                    

  Number of irreducible atoms/shells =      15


  Total number atoms/shells =      15

  Dimensionality = 3               :  Bulk   



  Cartesian lattice vectors (Angstroms) :

       12.000000    0.000000    0.000000
        0.000000    4.000000    0.000000
        0.000000    0.000000    4.000000

  Cell parameters (Angstroms/Degrees):

  a =      12.0000    alpha =  90.0000
  b =       4.0000    beta  =  90.0000
  c =       4.0000    gamma =  90.0000

  Initial cell volume =         192.000000 Angs**3

  Temperature of configuration =  0.000     K 

  Pressure of configuration =         0.000 GPa 

  Fractional coordinates of asymmetric unit :

--------------------------------------------------------------------------------
   No.  Atomic       x           y          z         Charge      Occupancy
        Label      (Frac)      (Frac)     (Frac)        (e)         (Frac)  
--------------------------------------------------------------------------------
      1 Sr    c    0.999960    0.999870    0.000550     2.00000    1.000000    
      2 Ti    c    0.166670 *  0.500120 *  0.500000 *   4.00000    1.000000    
      3 O     c    0.999860 *  0.499900 *  0.500580 *  -2.00000    1.000000    
      4 O     c    0.166680 *  0.000170 *  0.499980 *  -2.00000    1.000000    
      5 O     c    0.166710 *  0.500200 *  0.999660 *  -2.00000    1.000000    
      6 Sr    c    0.333470 *  0.000350 *  0.000010 *   2.00000    1.000000    
      7 Ti    c    0.500270 *  0.499340 *  0.499380 *   4.00000    1.000000    
      8 O     c    0.333310 *  0.499790 *  0.499620 *  -2.00000    1.000000    
      9 O     c    0.499980 *  0.999440 *  0.500200 *  -2.00000    1.000000    
     10 O     c    0.500030 *  0.500400 *  0.000150 *  -2.00000    1.000000    
     11 Sr    c    0.666540 *  0.999940 *  0.999970 *   2.00000    1.000000    
     12 Ti    c    0.833350 *  0.499710 *  0.499670 *   4.00000    1.000000    
     13 O     c    0.666530 *  0.499700 *  0.500090 *  -2.00000    1.000000    
     14 O     c    0.833150 *  0.000100 *  0.500050 *  -2.00000    1.000000    
     15 O     c    0.833380 *  0.500160 *  0.000120 *  -2.00000    1.000000    
--------------------------------------------------------------------------------



********************************************************************************
*  General input information                                                   *
********************************************************************************

  Species output for all configurations : 

--------------------------------------------------------------------------------
  Species    Type    Atomic    Atomic    Charge       Radii (Angs)     Library
                     Number     Mass       (e)     Cova   Ionic  VDW   Symbol
--------------------------------------------------------------------------------
    Sr       Core       38      87.62   2.000000   1.120  0.000  1.670          
    Ti       Core       22      47.88   4.000000   1.470  0.000  2.190          
    O        Core        8      16.00  -2.000000   0.730  0.000  1.360          
--------------------------------------------------------------------------------


  Lattice summation method               =    Ewald          (3-D)
                                         =    Parry          (2-D)
                                         =    Saunders et al (1-D)
  Accuracy factor for lattice sums       =   12.000


  Time limit = Infinity

  Maximum range for interatomic potentials =    100000.000000 Angstroms

  General interatomic potentials :

--------------------------------------------------------------------------------
Atom  Types   Potential      Parameter       Value         Units   Cutoffs(Ang)
  1     2                                                            Min /  Max 
--------------------------------------------------------------------------------
O    c Sr   c Buckingham    Buckingham A     1952.3900    eV        0.000 10.000
                            Buckingham rho  0.33685000    Ang       
                            Buckingham C     19.220000    eV*Ang^6  
--------------------------------------------------------------------------------
O    c Ti   c Buckingham    Buckingham A     4590.7279    eV        0.000 10.000
                            Buckingham rho  0.26100000    Ang       
                            Buckingham C     0.0000000    eV*Ang^6  
--------------------------------------------------------------------------------
O    c O    c Buckingham    Buckingham A     1388.7700    eV        0.000 10.000
                            Buckingham rho  0.36262000    Ang       
                            Buckingham C     175.00000    eV*Ang^6  
--------------------------------------------------------------------------------
 Calling ------OPTIONS------

********************************************************************************
*  Output for configuration   1                                                *
********************************************************************************


  Components of energy : 

--------------------------------------------------------------------------------
  Interatomic potentials     =          59.32156790 eV    
  Monopole - monopole (real) =        -234.57439053 eV    
  Monopole - monopole (recip)=        -300.12335562 eV    
  Monopole - monopole (total)=        -534.69774615 eV    
--------------------------------------------------------------------------------
  Total lattice energy       =        -475.37617825 eV    
--------------------------------------------------------------------------------
  Total lattice energy       =          -45866.5344 kJ/(mole unit cells)
--------------------------------------------------------------------------------


  Number of variables =       48

  Maximum number of calculations  =          1000
  Maximum Hessian update interval =            10
  Maximum step size               =   1.000000000
  Maximum parameter tolerance     =   0.000010000
  Maximum function  tolerance     =   0.000010000
  Maximum gradient  tolerance     =   0.001000000
  Maximum gradient  component     =   0.010000000

  Cell parameters to be optimised using strains

  Conjugate gradient optimiser to be used

  Lower half triangular hessian to be used

  Minimiser to switch to BFGS with exact hessian
  When gradient norm is less than     0.500000

  Start of bulk optimisation :

  Cycle:      0 Energy:      -475.376178  Gnorm:      0.418174  CPU:    0.011
  ** Hessian calculated **
 ALPHA BEFORE:    1.0000000000000000     
 XC BEFORE:   0.16666999999995369     
  ** Opt : line minimisation
left   ...       0.00000000    -475.37617825
centre ...       0.25000000    -475.46192301
right  ...       0.50000000    -475.52276742

left   ...       0.00000000    -475.37617825
centre ...       0.25000000    -475.46192301
right  ...       0.50000000    -475.52276742
new    ...       0.98587946    -475.56714681

__s__    ...       0.48587946

left   ...       0.25000000    -475.46192301
centre ...       0.50000000    -475.52276742
right  ...       0.98587946    -475.56714681
new    ...       0.96398096    -475.56730164

__s__    ...      -0.02189851

 ALPHA AFTER:   0.96398095671689776     
 XC AFTER:   0.16662368771395272     
 SANITY CHECK:   0.96398095671694395     
 DIRECTION dim            1  value   -4.8042739514992820E-005
 DIRECTION dim            2  value   -2.7102447196458734E-004
 DIRECTION dim            3  value    5.4587909803012122E-004
 DIRECTION dim            4  value    1.3189945195461294E-004
 DIRECTION dim            5  value   -6.4108684905762656E-005
 DIRECTION dim            6  value    4.3496989943279682E-006
 DIRECTION dim            7  value   -4.1376758456050276E-005
 DIRECTION dim            8  value   -3.3696619103441465E-004
 DIRECTION dim            9  value    6.1399159342729096E-004
 DIRECTION dim           10  value   -7.1955810164416184E-005
 DIRECTION dim           11  value   -3.5760540132158213E-004
 DIRECTION dim           12  value    9.7164069493577067E-004
 DIRECTION dim           13  value   -1.9294147582568516E-004
 DIRECTION dim           14  value   -5.4549493929717280E-004
 DIRECTION dim           15  value    5.5270420250475808E-004
 DIRECTION dim           16  value   -3.4221425863233384E-004
 DIRECTION dim           17  value    4.9197973044649455E-004
 DIRECTION dim           18  value    1.2532813109560170E-003
 DIRECTION dim           19  value    2.7044735732672112E-006
 DIRECTION dim           20  value    5.9121266890527811E-005
 DIRECTION dim           21  value    9.5909720181096563E-004
 DIRECTION dim           22  value   -2.9427941258451293E-005
 DIRECTION dim           23  value    4.0166395998471029E-004
 DIRECTION dim           24  value    3.6051317925126072E-004
 DIRECTION dim           25  value   -7.9665213494108856E-005
 DIRECTION dim           26  value   -5.5935992598151417E-004
 DIRECTION dim           27  value    3.2748516520578609E-004
 DIRECTION dim           28  value    8.9639434193780566E-005
 DIRECTION dim           29  value   -8.8802797457585041E-005
 DIRECTION dim           30  value    6.4053197112996958E-004
 DIRECTION dim           31  value   -6.2183287814413725E-005
 DIRECTION dim           32  value    1.6526372437873177E-004
 DIRECTION dim           33  value    9.3923359347656600E-004
 DIRECTION dim           34  value    1.3000730296924018E-004
 DIRECTION dim           35  value    1.3908079618890165E-004
 DIRECTION dim           36  value    4.7471209493234597E-004
 DIRECTION dim           37  value    1.5689468597554338E-004
 DIRECTION dim           38  value   -3.0821748004855788E-004
 DIRECTION dim           39  value    5.2377717606147465E-004
 DIRECTION dim           40  value   -7.4332586685175355E-005
 DIRECTION dim           41  value   -3.2526833841019025E-004
 DIRECTION dim           42  value    4.0401740382824748E-004
 DIRECTION dim           43  value   -1.1351278688812421E-002
 DIRECTION dim           44  value   -1.1335926819453120E-002
 DIRECTION dim           45  value   -1.1346634621358896E-002
 DIRECTION dim           46  value   -2.4670996791086414E-007
 DIRECTION dim           47  value   -1.3474176021471555E-007
 DIRECTION dim           48  value   -1.3536668926325189E-007
  Cycle:      1 Energy:      -475.567302  Gnorm:      0.005665  CPU:    0.024
 ALPHA BEFORE:    76.630772546150908     
 XC BEFORE:   0.16662368771395272     
  ** Opt : line minimisation
left   ...       0.00000000    -475.56730164
centre ...       1.00000000    -475.56731778
right  ...       2.00000000    -475.56729052

left   ...       0.00000000    -475.56730164
centre ...       1.00000000    -475.56731778
right  ...       2.00000000    -475.56729052
new    ...       1.00000000    -475.56731778

__s__    ...      -1.00000000

 ALPHA AFTER:    1.0000000000000000     
 XC AFTER:   0.16662636400199787     
 SANITY CHECK:   0.99999999999628797     
 DIRECTION dim            1  value    2.6762880451602335E-006
 DIRECTION dim            2  value    1.4371819201330796E-005
 DIRECTION dim            3  value    2.6910344566501177E-005
 DIRECTION dim            4  value   -3.4083607941689407E-005
 DIRECTION dim            5  value    3.7239749079565968E-005
 DIRECTION dim            6  value   -3.6903995181198132E-005
 DIRECTION dim            7  value   -1.7293371651276616E-005
 DIRECTION dim            8  value    3.0778889096195906E-005
 DIRECTION dim            9  value   -2.6354743836735081E-005
 DIRECTION dim           10  value   -1.7768091402886816E-005
 DIRECTION dim           11  value    1.8966220258408593E-005
 DIRECTION dim           12  value   -5.8402273026773459E-005
 DIRECTION dim           13  value    9.6943231051855434E-006
 DIRECTION dim           14  value    5.2953380075450319E-005
 DIRECTION dim           15  value    4.7638201253817197E-006
 DIRECTION dim           16  value    2.2100189022517831E-005
 DIRECTION dim           17  value    6.0209078890943094E-005
 DIRECTION dim           18  value   -5.1139664632084143E-005
 DIRECTION dim           19  value   -2.5880887646948389E-005
 DIRECTION dim           20  value    2.6689874507518651E-005
 DIRECTION dim           21  value    3.0656880042917303E-006
 DIRECTION dim           22  value    6.7520315623323518E-006
 DIRECTION dim           23  value    4.5782613291297951E-005
 DIRECTION dim           24  value    2.6591014429190270E-006
 DIRECTION dim           25  value    5.2390018442807462E-006
 DIRECTION dim           26  value    1.2784261715877641E-005
 DIRECTION dim           27  value    9.8708600173892495E-005
 DIRECTION dim           28  value    4.2167492131949854E-008
 DIRECTION dim           29  value    1.7470718191970735E-005
 DIRECTION dim           30  value   -4.7601797992295568E-005
 DIRECTION dim           31  value    3.6021536585628308E-006
 DIRECTION dim           32  value   -8.3998820737305724E-007
 DIRECTION dim           33  value   -3.3570347829553733E-005
 DIRECTION dim           34  value   -3.5448717441830727E-005
 DIRECTION dim           35  value    4.0580292985326492E-005
 DIRECTION dim           36  value    2.5646399486355356E-006
 DIRECTION dim           37  value   -1.1206514778934068E-005
 DIRECTION dim           38  value    8.0293723678552927E-005
 DIRECTION dim           39  value   -5.8655420352361758E-006
 DIRECTION dim           40  value   -1.8308605771583155E-005
 DIRECTION dim           41  value    2.9336738211886478E-005
 DIRECTION dim           42  value    4.7536212617660938E-005
 DIRECTION dim           43  value    7.1075591682148568E-005
 DIRECTION dim           44  value    5.0137468156701893E-005
 DIRECTION dim           45  value    6.4695033451071384E-005
 DIRECTION dim           46  value    3.1277355305843721E-007
 DIRECTION dim           47  value    4.1514812831833599E-007
 DIRECTION dim           48  value    1.6893588535728713E-007
  Cycle:      2 Energy:      -475.567318  Gnorm:      0.001076  CPU:    0.028
 ALPHA BEFORE:    6.4061542839438088     
 XC BEFORE:   0.16662636400199787     
  ** Opt : line minimisation
left   ...       0.00000000    -475.56731778
centre ...       1.00000000    -475.56731824
right  ...       2.00000000    -475.56731774

left   ...       0.00000000    -475.56731778
centre ...       1.00000000    -475.56731824
right  ...       2.00000000    -475.56731774
new    ...       1.00000000    -475.56731824

__s__    ...      -1.00000000

 ALPHA AFTER:    1.0000000000000000     
 XC AFTER:   0.16662675610102462     
 SANITY CHECK:   0.99999999997240907     
 DIRECTION dim            1  value    3.9209902675779097E-007
 DIRECTION dim            2  value   -3.1715502002825317E-006
 DIRECTION dim            3  value   -3.3754657075214317E-006
 DIRECTION dim            4  value    7.2673272702960853E-006
 DIRECTION dim            5  value   -5.4933592986364285E-006
 DIRECTION dim            6  value    2.3865023121868511E-006
 DIRECTION dim            7  value    4.0822244619441556E-006
 DIRECTION dim            8  value   -6.1059287394450172E-006
 DIRECTION dim            9  value    4.3204812962349317E-006
 DIRECTION dim           10  value    4.0219097852597865E-006
 DIRECTION dim           11  value   -4.3909112533703421E-006
 DIRECTION dim           12  value    1.1880311327382954E-005
 DIRECTION dim           13  value   -1.8928225401600544E-007
 DIRECTION dim           14  value   -6.9408829782509265E-006
 DIRECTION dim           15  value    2.5829653618648991E-006
 DIRECTION dim           16  value   -1.9743270046097456E-006
 DIRECTION dim           17  value   -4.3778095793425884E-006
 DIRECTION dim           18  value    1.3250552126718855E-005
 DIRECTION dim           19  value    7.1213709472375359E-006
 DIRECTION dim           20  value   -3.7829777330605133E-006
 DIRECTION dim           21  value    2.2695793718300479E-006
 DIRECTION dim           22  value    2.0209879460572564E-006
 DIRECTION dim           23  value   -2.8980613807474231E-006
 DIRECTION dim           24  value   -4.5561539671194138E-007
 DIRECTION dim           25  value    1.9487524761289153E-006
 DIRECTION dim           26  value   -3.7296583578004119E-006
 DIRECTION dim           27  value   -1.4946180398855721E-005
 DIRECTION dim           28  value    1.8017389303407814E-007
 DIRECTION dim           29  value   -1.8160794592808022E-006
 DIRECTION dim           30  value    1.0389866562408122E-005
 DIRECTION dim           31  value   -2.8244641445338191E-007
 DIRECTION dim           32  value    1.6502045516598306E-006
 DIRECTION dim           33  value    8.2426891284405421E-006
 DIRECTION dim           34  value    7.0704691671730505E-006
 DIRECTION dim           35  value   -4.6778773178712652E-006
 DIRECTION dim           36  value   -4.3067831592372232E-007
 DIRECTION dim           37  value    3.5106860988385832E-006
 DIRECTION dim           38  value   -1.3466237088333401E-005
 DIRECTION dim           39  value    7.0999618299044251E-007
 DIRECTION dim           40  value    3.4638958535582727E-006
 DIRECTION dim           41  value   -5.9264033701946929E-006
 DIRECTION dim           42  value   -7.4079099394197154E-006
 DIRECTION dim           43  value   -4.7698211737711923E-006
 DIRECTION dim           44  value    1.9861131781048242E-006
 DIRECTION dim           45  value   -2.7090419850437539E-006
 DIRECTION dim           46  value   -7.2431471177945406E-008
 DIRECTION dim           47  value   -2.9497082459149171E-007
 DIRECTION dim           48  value   -4.1446148858669771E-008


  **** Optimisation achieved ****


  Final energy =    -475.56731824 eV
  Final Gnorm  =       0.00004522

  Components of energy : 

--------------------------------------------------------------------------------
  Interatomic potentials     =          65.00956400 eV    
  Monopole - monopole (real) =        -237.15341410 eV    
  Monopole - monopole (recip)=        -303.42346814 eV    
  Monopole - monopole (total)=        -540.57688224 eV    
--------------------------------------------------------------------------------
  Total lattice energy       =        -475.56731824 eV    
--------------------------------------------------------------------------------
  Total lattice energy       =          -45884.9765 kJ/(mole unit cells)
--------------------------------------------------------------------------------

  Final fractional coordinates of atoms :

--------------------------------------------------------------------------------
   No.  Atomic        x           y          z          Radius
        Label       (Frac)      (Frac)     (Frac)       (Angs) 
--------------------------------------------------------------------------------
     1  Sr    c     0.999960    0.999870    0.000550    0.000000
     2  Ti    c     0.166627    0.499870    0.500550    0.000000
     3  O     c     0.999960    0.499870    0.500550    0.000000
     4  O     c     0.166627    0.999870    0.500550    0.000000
     5  O     c     0.166627    0.499870    0.000550    0.000000
     6  Sr    c     0.333294    0.999870    0.000550    0.000000
     7  Ti    c     0.499960    0.499870    0.500550    0.000000
     8  O     c     0.333294    0.499870    0.500550    0.000000
     9  O     c     0.499960    0.999870    0.500550    0.000000
    10  O     c     0.499960    0.499870    0.000549    0.000000
    11  Sr    c     0.666627    0.999870    0.000550    0.000000
    12  Ti    c     0.833293    0.499870    0.500550    0.000000
    13  O     c     0.666627    0.499870    0.500550    0.000000
    14  O     c     0.833294    0.999870    0.500550    0.000000
    15  O     c     0.833294    0.499870    0.000550    0.000000
--------------------------------------------------------------------------------

  Final Cartesian lattice vectors (Angstroms) :

       11.869487   -0.000000   -0.000000
       -0.000000    3.956498    0.000000
       -0.000000    0.000000    3.956496


  Final cell parameters and derivatives :

--------------------------------------------------------------------------------
       a           11.869487 Angstrom     dE/de1(xx)     0.000613 eV/strain
       b            3.956498 Angstrom     dE/de2(yy)     0.000792 eV/strain
       c            3.956496 Angstrom     dE/de3(zz)     0.000658 eV/strain
       alpha       90.000000 Degrees      dE/de4(yz)     0.000001 eV/strain
       beta        90.000000 Degrees      dE/de5(xz)    -0.000003 eV/strain
       gamma       90.000000 Degrees      dE/de6(xy)    -0.000001 eV/strain
--------------------------------------------------------------------------------

  Primitive cell volume =           185.803393 Angs**3

  Density of cell =      4.919939 g/cm**3

  Non-primitive cell volume =           185.803393 Angs**3


  Final internal derivatives :

--------------------------------------------------------------------------------
   No.  Atomic          a             b             c           Radius
        Label          (eV)          (eV)          (eV)        (eV/Angs)
--------------------------------------------------------------------------------
      1 Sr    c       0.000000      0.000000      0.000000      0.000000
      2 Ti    c      -0.000661      0.000011     -0.000086      0.000000
      3 O     c       0.000718      0.000012     -0.000062      0.000000
      4 O     c      -0.000159     -0.000031     -0.000044      0.000000
      5 O     c      -0.000177     -0.000006      0.000156      0.000000
      6 Sr    c      -0.000043      0.000018      0.000022      0.000000
      7 Ti    c      -0.000437      0.000064      0.000233      0.000000
      8 O     c       0.001130     -0.000034     -0.000006      0.000000
      9 O     c       0.000267      0.000073     -0.000020      0.000000
     10 O     c       0.000248     -0.000078     -0.000220      0.000000
     11 Sr    c      -0.000232     -0.000005      0.000023      0.000000
     12 Ti    c      -0.000605      0.000119      0.000152      0.000000
     13 O     c       0.000116     -0.000017     -0.000022      0.000000
     14 O     c       0.000026     -0.000122     -0.000022      0.000000
     15 O     c      -0.000060     -0.000006     -0.000113      0.000000
--------------------------------------------------------------------------------
  Maximum abs         0.001130      0.000122      0.000233      0.000000
--------------------------------------------------------------------------------


  Time to end of optimisation =       0.0332 seconds

 Exiting ------OPTIONS------

  Peak dynamic memory used =       0.60 MB 


  Timing analysis for GULP :

--------------------------------------------------------------------------------
  Task / Subroutine                                          Time (Seconds)
--------------------------------------------------------------------------------
  Calculation of reciprocal space energy and derivatives          0.0034
  Calculation of real space energy and derivatives                0.0228
--------------------------------------------------------------------------------
  Total CPU time                                                  0.0332
--------------------------------------------------------------------------------


  Job Finished at 13:26.45 21st February   2020                               

