********************************************************************************
*                       GENERAL UTILITY LATTICE PROGRAM                        *
*                                 Julian Gale                                  *
*                       Curtin Institute for Computation                       *
*                           Department of Chemistry                            *
*                    Curtin University, Western Australia                      *
********************************************************************************
* Version = 5.1.1 * Last modified =  25th August 2019                          *
********************************************************************************
*  optimise     - perform optimisation run                                     *
*  conp         - constant pressure calculation                                *
*  nosymmetry   - turn off symmetry after initial structure generation         *
*  full         - generate full unit cell when symmetry is removed             *
*  conjugate    - use conjugate gradients minimiser                            *
********************************************************************************
* ASE calculation                                                              *
********************************************************************************


  Job Started  at 16:28.19  3rd February   2020                               

  Number of CPUs =     1


  Total number of configurations input =      1

********************************************************************************
*  Input for Configuration =   1                                               *
********************************************************************************

  Formula = O9Sr3Ti3                                                    

  Number of irreducible atoms/shells =      15


  Total number atoms/shells =      15

  Dimensionality = 3               :  Bulk   



  Cartesian lattice vectors (Angstroms) :

        4.000000    0.000000    0.000000
        0.000000    4.000000    0.000000
        0.000000    0.000000    8.000000

  Cell parameters (Angstroms/Degrees):

  a =       4.0000    alpha =  90.0000
  b =       4.0000    beta  =  90.0000
  c =       8.0000    gamma =  90.0000

  Initial cell volume =         128.000000 Angs**3

  Temperature of configuration =  0.000     K 

  Pressure of configuration =         0.000 GPa 

  Fractional coordinates of asymmetric unit :

--------------------------------------------------------------------------------
   No.  Atomic       x           y          z         Charge      Occupancy
        Label      (Frac)      (Frac)     (Frac)        (e)         (Frac)  
--------------------------------------------------------------------------------
      1 O     c    0.500000    0.500000    0.750000    -2.00000    1.000000    
      2 O     c    0.500000 *  0.000000 *  0.750000 *  -2.00000    1.000000    
      3 O     c    0.000000 *  0.500000 *  0.750000 *  -2.00000    1.000000    
      4 O     c    0.000000 *  0.500000 *  0.000000 *  -2.00000    1.000000    
      5 O     c    0.000000 *  0.000000 *  0.250000 *  -2.00000    1.000000    
      6 O     c    0.500000 *  0.000000 *  0.250000 *  -2.00000    1.000000    
      7 O     c    0.500000 *  0.500000 *  0.250000 *  -2.00000    1.000000    
      8 O     c    0.500000 *  0.500000 *  0.500000 *  -2.00000    1.000000    
      9 O     c    0.500000 *  0.000000 *  0.500000 *  -2.00000    1.000000    
     10 Sr    c    0.250000 *  0.750000 *  0.375000 *   2.00000    1.000000    
     11 Sr    c    0.250000 *  0.750000 *  0.875000 *   2.00000    1.000000    
     12 Sr    c    0.250000 *  0.250000 *  0.625000 *   2.00000    1.000000    
     13 Ti    c    0.250000 *  0.750000 *  0.625000 *   4.00000    1.000000    
     14 Ti    c    0.750000 *  0.250000 *  0.875000 *   4.00000    1.000000    
     15 Ti    c    0.750000 *  0.750000 *  0.375000 *   4.00000    1.000000    
--------------------------------------------------------------------------------



********************************************************************************
*  General input information                                                   *
********************************************************************************

  Species output for all configurations : 

--------------------------------------------------------------------------------
  Species    Type    Atomic    Atomic    Charge       Radii (Angs)     Library
                     Number     Mass       (e)     Cova   Ionic  VDW   Symbol
--------------------------------------------------------------------------------
    O        Core        8      16.00  -2.000000   0.730  0.000  1.360          
    Sr       Core       38      87.62   2.000000   1.120  0.000  1.670          
    Ti       Core       22      47.88   4.000000   1.470  0.000  2.190          
--------------------------------------------------------------------------------


  Lattice summation method               =    Ewald          (3-D)
                                         =    Parry          (2-D)
                                         =    Saunders et al (1-D)
  Accuracy factor for lattice sums       =   12.000


  Time limit = Infinity

  Maximum range for interatomic potentials =    100000.000000 Angstroms

  General interatomic potentials :

--------------------------------------------------------------------------------
Atom  Types   Potential      Parameter       Value         Units   Cutoffs(Ang)
  1     2                                                            Min /  Max 
--------------------------------------------------------------------------------
O    c Sr   c Buckingham    Buckingham A     1952.3900    eV        0.000 10.000
                            Buckingham rho  0.33685000    Ang       
                            Buckingham C     19.220000    eV*Ang^6  
--------------------------------------------------------------------------------
O    c Ti   c Buckingham    Buckingham A     4590.7279    eV        0.000 10.000
                            Buckingham rho  0.26100000    Ang       
                            Buckingham C     0.0000000    eV*Ang^6  
--------------------------------------------------------------------------------
O    c O    c Buckingham    Buckingham A     1388.7700    eV        0.000 10.000
                            Buckingham rho  0.36262000    Ang       
                            Buckingham C     175.00000    eV*Ang^6  
--------------------------------------------------------------------------------
 Calling ------OPTIONS------

********************************************************************************
*  Output for configuration   1                                                *
********************************************************************************


  Components of energy : 

--------------------------------------------------------------------------------
  Interatomic potentials     =         283.74069147 eV    
  Monopole - monopole (real) =        -200.67401279 eV    
  Monopole - monopole (recip)=        -313.23454466 eV    
  Monopole - monopole (total)=        -513.90855745 eV    
--------------------------------------------------------------------------------
  Total lattice energy       =        -230.16786598 eV    
--------------------------------------------------------------------------------
  Total lattice energy       =          -22207.6806 kJ/(mole unit cells)
--------------------------------------------------------------------------------


  Number of variables =       48

  Maximum number of calculations  =          1000
  Maximum Hessian update interval =            10
  Maximum step size               =   1.000000000
  Maximum parameter tolerance     =   0.000010000
  Maximum function  tolerance     =   0.000010000
  Maximum gradient  tolerance     =   0.001000000
  Maximum gradient  component     =   0.010000000

  Cell parameters to be optimised using strains

  Conjugate gradient optimiser to be used

  Lower half triangular hessian to be used

  Minimiser to switch to BFGS with exact hessian
  When gradient norm is less than     0.500000

  Start of bulk optimisation :

  Cycle:      0 Energy:      -230.167866  Gnorm:     22.287918  CPU:    0.014
 Perform trimming
 Line minimisation2
 ALPHA BEFORE:    1.0000000000000000     
  ** Opt : line minimisation
left   ...       0.00000000    -230.16786598
centre ...       0.25000000    -291.31288697
right  ...       0.50000000    -323.60564679

left   ...       0.00000000    -230.16786598
centre ...       0.25000000    -291.31288697
right  ...       0.50000000    -323.60564679
new    ...       0.65481134    -333.87884266

__s__    ...       0.15481134

left   ...       0.25000000    -291.31288697
centre ...       0.50000000    -323.60564679
right  ...       0.65481134    -333.87884266
new    ...       0.79124407    -338.62254581

__s__    ...       0.13643273

left   ...       0.50000000    -323.60564679
centre ...       0.65481134    -333.87884266
right  ...       0.79124407    -338.62254581
new    ...       0.88330707    -340.02226173

__s__    ...       0.09206300

left   ...       0.65481134    -333.87884266
centre ...       0.79124407    -338.62254581
right  ...       0.88330707    -340.02226173
new    ...       0.92605425    -340.24616919

__s__    ...       0.04274717

 ALPHA AFTER:   0.92605424545865089     
  Cycle:      1 Energy:      -340.246169  Gnorm:     15.240717  CPU:    0.025
 Perform trimming
 Line minimisation2
 ALPHA BEFORE:   0.92605424545865089     
  ** Opt : line minimisation
left   ...       0.00000000    -340.24616919
centre ...       0.23151356    -386.54672983
right  ...       0.46302712    -388.34292258

left   ...       0.00000000    -340.24616919
centre ...       0.23151356    -386.54672983
right  ...       0.46302712    -388.34292258
new    ...       0.35661421    -392.10925495

__s__    ...      -0.10641291

left   ...       0.23151356    -386.54672983
centre ...       0.35661421    -392.10925495
right  ...       0.46302712    -388.34292258
new    ...       0.35851651    -392.10509549

__s__    ...       0.00190230

 ALPHA AFTER:   0.35661421101815116     
  Cycle:      2 Energy:      -392.109255  Gnorm:      6.444002  CPU:    0.031
 Line minimisation2
 ALPHA BEFORE:   0.35661421101815116     
  ** Opt : line minimisation
left   ...       0.00000000    -392.10925495
centre ...       0.08915355    -399.51367342
right  ...       0.17830711    -405.09719178

left   ...       0.00000000    -392.10925495
centre ...       0.08915355    -399.51367342
right  ...       0.17830711    -405.09719178
new    ...       0.40710639    -410.58642815

__s__    ...       0.22879928

left   ...       0.08915355    -399.51367342
centre ...       0.17830711    -405.09719178
right  ...       0.40710639    -410.58642815
new    ...       0.39142351    -410.63765347

__s__    ...      -0.01568288

 ALPHA AFTER:   0.39142351006182696     
  Cycle:      3 Energy:      -410.637653  Gnorm:      5.341341  CPU:    0.036
 Line minimisation2
 ALPHA BEFORE:   0.39142351006182696     
  ** Opt : line minimisation
left   ...       0.00000000    -410.63765347
centre ...       0.09785588    -416.12804132
right  ...       0.19571176    -420.35054055

left   ...       0.00000000    -410.63765347
centre ...       0.09785588    -416.12804132
right  ...       0.19571176    -420.35054055
new    ...       0.47267709    -425.83394009

__s__    ...       0.27696533

left   ...       0.09785588    -416.12804132
centre ...       0.19571176    -420.35054055
right  ...       0.47267709    -425.83394009
new    ...       0.49308341    -425.88334411

__s__    ...       0.02040632

 ALPHA AFTER:   0.49308340813776036     
  Cycle:      4 Energy:      -425.883344  Gnorm:      4.995190  CPU:    0.040
 Line minimisation2
 ALPHA BEFORE:   0.49308340813776036     
  ** Opt : line minimisation
left   ...       0.00000000    -425.88334411
centre ...       0.12327085    -431.67177297
right  ...       0.24654170    -434.73028631

left   ...       0.00000000    -425.88334411
centre ...       0.12327085    -431.67177297
right  ...       0.24654170    -434.73028631
new    ...       0.32301515    -435.09315950

__s__    ...       0.07647344

 ALPHA AFTER:   0.32301514663539105     
  Cycle:      5 Energy:      -435.093159  Gnorm:      4.405720  CPU:    0.043
 Line minimisation2
 ALPHA BEFORE:   0.32301514663539105     
  ** Opt : line minimisation
left   ...       0.00000000    -435.09315950
centre ...       0.08075379    -437.82801325
right  ...       0.16150757    -439.62406366

left   ...       0.00000000    -435.09315950
centre ...       0.08075379    -437.82801325
right  ...       0.16150757    -439.62406366
new    ...       0.27562296    -440.86459816

__s__    ...       0.11411539

left   ...       0.08075379    -437.82801325
centre ...       0.16150757    -439.62406366
right  ...       0.27562296    -440.86459816
new    ...       0.31172111    -440.98112804

__s__    ...       0.03609815

 ALPHA AFTER:   0.31172111152652837     
  Cycle:      6 Energy:      -440.981128  Gnorm:      3.388529  CPU:    0.046
 Line minimisation2
 ALPHA BEFORE:   0.31172111152652837     
  ** Opt : line minimisation
left   ...       0.00000000    -440.98112804
centre ...       0.07793028    -442.68663342
right  ...       0.15586056    -443.73603775

left   ...       0.00000000    -440.98112804
centre ...       0.07793028    -442.68663342
right  ...       0.15586056    -443.73603775
new    ...       0.24154142    -444.25052444

__s__    ...       0.08568086

left   ...       0.07793028    -442.68663342
centre ...       0.15586056    -443.73603775
right  ...       0.24154142    -444.25052444
new    ...       0.26453669    -444.28965683

__s__    ...       0.02299527

 ALPHA AFTER:   0.26453668755646881     
  Cycle:      7 Energy:      -444.289657  Gnorm:      3.572728  CPU:    0.050
 Line minimisation2
 ALPHA BEFORE:   0.26453668755646881     
  ** Opt : line minimisation
left   ...       0.00000000    -444.28965683
centre ...       0.06613417    -446.07433490
right  ...       0.13226834    -447.49596770

left   ...       0.00000000    -444.28965683
centre ...       0.06613417    -446.07433490
right  ...       0.13226834    -447.49596770
new    ...       0.35817311    -449.52253114

__s__    ...       0.22590477

left   ...       0.06613417    -446.07433490
centre ...       0.13226834    -447.49596770
right  ...       0.35817311    -449.52253114
new    ...       0.34980271    -449.52861819

__s__    ...      -0.00837040

 ALPHA AFTER:   0.34980271139353414     
  Cycle:      8 Energy:      -449.528618  Gnorm:      2.813873  CPU:    0.055
 Line minimisation2
 ALPHA BEFORE:   0.34980271139353414     
  ** Opt : line minimisation
left   ...       0.00000000    -449.52861819
centre ...       0.08745068    -450.91422366
right  ...       0.17490136    -451.99230116

left   ...       0.00000000    -449.52861819
centre ...       0.08745068    -450.91422366
right  ...       0.17490136    -451.99230116
new    ...       0.43774524    -453.48155416

__s__    ...       0.26284388

left   ...       0.08745068    -450.91422366
centre ...       0.17490136    -451.99230116
right  ...       0.43774524    -453.48155416
new    ...       0.45528516    -453.48864741

__s__    ...       0.01753992

 ALPHA AFTER:   0.45528515704590650     
  Cycle:      9 Energy:      -453.488647  Gnorm:      1.874484  CPU:    0.060
 Line minimisation2
 ALPHA BEFORE:   0.45528515704590650     
  ** Opt : line minimisation
left   ...       0.00000000    -453.48864741
centre ...       0.11382129    -454.27618056
right  ...       0.22764258    -454.85128634

left   ...       0.00000000    -453.48864741
centre ...       0.11382129    -454.27618056
right  ...       0.22764258    -454.85128634
new    ...       0.47888094    -455.39109611

__s__    ...       0.25123836

left   ...       0.11382129    -454.27618056
centre ...       0.22764258    -454.85128634
right  ...       0.47888094    -455.39109611
new    ...       0.48830574    -455.39197349

__s__    ...       0.00942481

 ALPHA AFTER:   0.48830574263140286     
  Cycle:     10 Energy:      -455.391973  Gnorm:      1.736579  CPU:    0.064
 Line minimisation2
 ALPHA BEFORE:   0.48830574263140286     
  ** Opt : line minimisation
left   ...       0.00000000    -455.39197349
centre ...       0.12207644    -456.09882608
right  ...       0.24415287    -456.57626426

left   ...       0.00000000    -455.39197349
centre ...       0.12207644    -456.09882608
right  ...       0.24415287    -456.57626426
new    ...       0.43716997    -456.81150645

__s__    ...       0.19301710

 ALPHA AFTER:   0.43716997299457588     
  Cycle:     11 Energy:      -456.811506  Gnorm:      1.908897  CPU:    0.068
 Line minimisation2
 ALPHA BEFORE:   0.43716997299457588     
  ** Opt : line minimisation
left   ...       0.00000000    -456.81150645
centre ...       0.10929249    -457.56380374
right  ...       0.21858499    -458.17013182

left   ...       0.00000000    -456.81150645
centre ...       0.10929249    -457.56380374
right  ...       0.21858499    -458.17013182
new    ...       0.61791878    -458.99052078

__s__    ...       0.39933380

left   ...       0.10929249    -457.56380374
centre ...       0.21858499    -458.17013182
right  ...       0.61791878    -458.99052078
new    ...       0.56780965    -459.01889747

__s__    ...      -0.05010913

 ALPHA AFTER:   0.56780964837571402     
  Cycle:     12 Energy:      -459.018897  Gnorm:      1.705407  CPU:    0.074
 Line minimisation2
 ALPHA BEFORE:   0.56780964837571402     
  ** Opt : line minimisation
left   ...       0.00000000    -459.01889747
centre ...       0.14195241    -459.86319372
right  ...       0.28390482    -460.52032195

left   ...       0.00000000    -459.01889747
centre ...       0.14195241    -459.86319372
right  ...       0.28390482    -460.52032195
new    ...       0.71130935    -461.07241379

__s__    ...       0.42740452

left   ...       0.14195241    -459.86319372
centre ...       0.28390482    -460.52032195
right  ...       0.71130935    -461.07241379
new    ...       0.60778834    -461.17045248

__s__    ...      -0.10352101

 ALPHA AFTER:   0.60778833764436124     
  Cycle:     13 Energy:      -461.170452  Gnorm:      1.881883  CPU:    0.080
 Line minimisation2
 ALPHA BEFORE:   0.60778833764436124     
  ** Opt : line minimisation
left   ...       0.00000000    -461.17045248
centre ...       0.15194708    -462.21962335
right  ...       0.30389417    -462.84410245

left   ...       0.00000000    -461.17045248
centre ...       0.15194708    -462.21962335
right  ...       0.30389417    -462.84410245
new    ...       0.45134803    -462.83483164

__s__    ...       0.14745386

 ALPHA AFTER:   0.30389416882218062     
  Cycle:     14 Energy:      -462.844102  Gnorm:      1.616850  CPU:    0.085
 Line minimisation2
 ALPHA BEFORE:   0.30389416882218062     
  ** Opt : line minimisation
left   ...       0.00000000    -462.84410245
centre ...       0.07597354    -463.25282143
right  ...       0.15194708    -463.56668159

left   ...       0.00000000    -462.84410245
centre ...       0.07597354    -463.25282143
right  ...       0.15194708    -463.56668159
new    ...       0.36533463    -463.96980281

__s__    ...       0.21338754

left   ...       0.07597354    -463.25282143
centre ...       0.15194708    -463.56668159
right  ...       0.36533463    -463.96980281
new    ...       0.38054991    -463.97342838

__s__    ...       0.01521529

 ALPHA AFTER:   0.38054991213468575     
  Cycle:     15 Energy:      -463.973428  Gnorm:      1.404716  CPU:    0.091
 Line minimisation2
 ALPHA BEFORE:   0.38054991213468575     
  ** Opt : line minimisation
left   ...       0.00000000    -463.97342838
centre ...       0.09513748    -464.35556613
right  ...       0.19027496    -464.62660161

left   ...       0.00000000    -463.97342838
centre ...       0.09513748    -464.35556613
right  ...       0.19027496    -464.62660161
new    ...       0.37479539    -464.83914489

__s__    ...       0.18452044

left   ...       0.09513748    -464.35556613
centre ...       0.19027496    -464.62660161
right  ...       0.37479539    -464.83914489
new    ...       0.37744575    -464.83922223

__s__    ...       0.00265036

 ALPHA AFTER:   0.37744575088143811     
  Cycle:     16 Energy:      -464.839222  Gnorm:      1.018780  CPU:    0.097
 Line minimisation2
 ALPHA BEFORE:   0.37744575088143811     
  ** Opt : line minimisation
left   ...       0.00000000    -464.83922223
centre ...       0.09436144    -465.04655577
right  ...       0.18872288    -465.21880926

left   ...       0.00000000    -464.83922223
centre ...       0.09436144    -465.04655577
right  ...       0.18872288    -465.21880926
new    ...       0.60488475    -465.56141001

__s__    ...       0.41616188

left   ...       0.09436144    -465.04655577
centre ...       0.18872288    -465.21880926
right  ...       0.60488475    -465.56141001
new    ...       0.60647853    -465.56144269

__s__    ...       0.00159378

 ALPHA AFTER:   0.60647852970038107     
  Cycle:     17 Energy:      -465.561443  Gnorm:      0.784477  CPU:    0.103
 Line minimisation2
 ALPHA BEFORE:   0.60647852970038107     
  ** Opt : line minimisation
left   ...       0.00000000    -465.56144269
centre ...       0.15161963    -465.74496370
right  ...       0.30323926    -465.87135567

left   ...       0.00000000    -465.56144269
centre ...       0.15161963    -465.74496370
right  ...       0.30323926    -465.87135567
new    ...       0.56287196    -465.95513064

__s__    ...       0.25963269

left   ...       0.15161963    -465.74496370
centre ...       0.30323926    -465.87135567
right  ...       0.56287196    -465.95513064
new    ...       0.56291074    -465.95513045

__s__    ...       0.00003879

 ALPHA AFTER:   0.56287195547737834     
  Cycle:     18 Energy:      -465.955131  Gnorm:      0.908643  CPU:    0.109
 Perform trimming
 Line minimisation2
 ALPHA BEFORE:   0.56287195547737834     
  ** Opt : line minimisation
left   ...       0.00000000    -465.95513064
centre ...       0.14071799    -466.18246460
right  ...       0.28143598    -466.35766674

left   ...       0.00000000    -465.95513064
centre ...       0.14071799    -466.18246460
right  ...       0.28143598    -466.35766674
new    ...       0.68399525    -466.56606169

__s__    ...       0.40255927

left   ...       0.14071799    -466.18246460
centre ...       0.28143598    -466.35766674
right  ...       0.68399525    -466.56606169
new    ...       0.67603949    -466.56621455

__s__    ...      -0.00795576

 ALPHA AFTER:   0.67603949246250894     
  Cycle:     19 Energy:      -466.566215  Gnorm:      1.125089  CPU:    0.116
 Line minimisation2
 ALPHA BEFORE:   0.67603949246250894     
  ** Opt : line minimisation
left   ...       0.00000000    -466.56621455
centre ...       0.16900987    -466.89269002
right  ...       0.33801975    -466.90913416

left   ...       0.00000000    -466.56621455
centre ...       0.16900987    -466.89269002
right  ...       0.33801975    -466.90913416
new    ...       0.26247913    -466.93922249

__s__    ...      -0.07554061

 ALPHA AFTER:   0.26247913160218206     
  Cycle:     20 Energy:      -466.939222  Gnorm:      0.766374  CPU:    0.121
 Line minimisation2
 ALPHA BEFORE:   0.26247913160218206     
  ** Opt : line minimisation
left   ...       0.00000000    -466.93922249
centre ...       0.06561978    -467.01829051
right  ...       0.13123957    -467.08389923

left   ...       0.00000000    -466.93922249
centre ...       0.06561978    -467.01829051
right  ...       0.13123957    -467.08389923
new    ...       0.41830002    -467.20912920

__s__    ...       0.28706045

left   ...       0.06561978    -467.01829051
centre ...       0.13123957    -467.08389923
right  ...       0.41830002    -467.20912920
new    ...       0.41126864    -467.20923515

__s__    ...      -0.00703138

 ALPHA AFTER:   0.41126863776974804     
  Cycle:     21 Energy:      -467.209235  Gnorm:      0.627209  CPU:    0.127
 Line minimisation2
 ALPHA BEFORE:   0.41126863776974804     
  ** Opt : line minimisation
left   ...       0.00000000    -467.20923515
centre ...       0.10281716    -467.29396615
right  ...       0.20563432    -467.36876997

left   ...       0.00000000    -467.20923515
centre ...       0.10281716    -467.29396615
right  ...       0.20563432    -467.36876997
new    ...       0.92897934    -467.60054429

__s__    ...       0.72334502

left   ...       0.10281716    -467.29396615
centre ...       0.20563432    -467.36876997
right  ...       0.92897934    -467.60054429
new    ...       0.89241697    -467.60155278

__s__    ...      -0.03656237

 ALPHA AFTER:   0.89241696561457784     
  Cycle:     22 Energy:      -467.601553  Gnorm:      0.663624  CPU:    0.133
 Line minimisation2
 ALPHA BEFORE:   0.89241696561457784     
  ** Opt : line minimisation
left   ...       0.00000000    -467.60155278
centre ...       0.22310424    -467.78826216
right  ...       0.44620848    -467.90566936

left   ...       0.00000000    -467.60155278
centre ...       0.22310424    -467.78826216
right  ...       0.44620848    -467.90566936
new    ...       0.71262494    -467.95111958

__s__    ...       0.26641646

 ALPHA AFTER:   0.71262493825789675     
  Cycle:     23 Energy:      -467.951120  Gnorm:      0.763974  CPU:    0.139
 Line minimisation2
 ALPHA BEFORE:   0.71262493825789675     
  ** Opt : line minimisation
left   ...       0.00000000    -467.95111958
centre ...       0.17815623    -468.13811957
right  ...       0.35631247    -468.23349269

left   ...       0.00000000    -467.95111958
centre ...       0.17815623    -468.13811957
right  ...       0.35631247    -468.23349269
new    ...       0.45267471    -468.24508104

__s__    ...       0.09636224

 ALPHA AFTER:   0.45267470831140189     
  Cycle:     24 Energy:      -468.245081  Gnorm:      0.688547  CPU:    0.144
 Line minimisation2
 ALPHA BEFORE:   0.45267470831140189     
  ** Opt : line minimisation
left   ...       0.00000000    -468.24508104
centre ...       0.11316868    -468.35666523
right  ...       0.22633735    -468.45056336

left   ...       0.00000000    -468.24508104
centre ...       0.11316868    -468.35666523
right  ...       0.22633735    -468.45056336
new    ...       0.77058345    -468.64521506

__s__    ...       0.54424610

left   ...       0.11316868    -468.35666523
centre ...       0.22633735    -468.45056336
right  ...       0.77058345    -468.64521506
new    ...       0.74750151    -468.64588642

__s__    ...      -0.02308195

 ALPHA AFTER:   0.74750150553106376     
  Cycle:     25 Energy:      -468.645886  Gnorm:      0.685903  CPU:    0.149
 Line minimisation2
 ALPHA BEFORE:   0.74750150553106376     
  ** Opt : line minimisation
left   ...       0.00000000    -468.64588642
centre ...       0.18687538    -468.77955929
right  ...       0.37375075    -468.78764317

left   ...       0.00000000    -468.64588642
centre ...       0.18687538    -468.77955929
right  ...       0.37375075    -468.78764317
new    ...       0.29234181    -468.79965008

__s__    ...      -0.08140894

 ALPHA AFTER:   0.29234181169975926     
  Cycle:     26 Energy:      -468.799650  Gnorm:      0.469950  CPU:    0.153
  ** Hessian calculated **
 Line minimisation2
 ALPHA BEFORE:    1.0000000000000000     
  ** Opt : line minimisation
left   ...       0.00000000    -468.79965008
centre ...       0.25000000    -468.92277962
right  ...       0.50000000    -469.03767684

left   ...       0.00000000    -468.79965008
centre ...       0.25000000    -468.92277962
right  ...       0.50000000    -469.03767684
new    ...       1.50000000    -469.42199109

__s__    ...       1.00000000

left   ...       0.25000000    -468.92277962
centre ...       0.50000000    -469.03767684
right  ...       1.50000000    -469.42199109
new    ...       2.50000000    -469.66168989

__s__    ...       1.00000000

left   ...       0.50000000    -469.03767684
centre ...       1.50000000    -469.42199109
right  ...       2.50000000    -469.66168989
new    ...       3.50000000    -469.68449242

__s__    ...       1.00000000

 ALPHA AFTER:    3.5000000000000000     
  Cycle:     27 Energy:      -469.684492  Gnorm:      0.543283  CPU:    0.162
 Line minimisation2
 ALPHA BEFORE:    2.8581625829344395     
  ** Opt : line minimisation
left   ...       0.00000000    -469.68449242
centre ...       0.71454065    -469.78006226
right  ...       1.42908129    -469.29874884

left   ...       0.00000000    -469.68449242
centre ...       0.71454065    -469.78006226
right  ...       1.42908129    -469.29874884
new    ...       0.47564529    -469.80661630

__s__    ...      -0.95343600

left   ...       0.00000000    -469.68449242
centre ...       0.47564529    -469.80661630
right  ...       0.71454065    -469.78006226
new    ...       0.48715327    -469.80667571

__s__    ...       0.01150798

 ALPHA AFTER:   0.48715327120418428     
  Cycle:     28 Energy:      -469.806676  Gnorm:      0.409498  CPU:    0.168
  ** Hessian calculated **
 Line minimisation2
 ALPHA BEFORE:    1.0000000000000000     
  ** Opt : line minimisation
left   ...       0.00000000    -469.80667571
centre ...       0.25000000    -469.88883674
right  ...       0.50000000    -469.92243920

left   ...       0.00000000    -469.80667571
centre ...       0.25000000    -469.88883674
right  ...       0.50000000    -469.92243920
new    ...       0.54799964    -469.92331342

__s__    ...       0.04799964

 ALPHA AFTER:   0.54799963643962457     
  Cycle:     29 Energy:      -469.923313  Gnorm:      0.170677  CPU:    0.173
 Line minimisation2
 ALPHA BEFORE:    1.0435199632286158     
  ** Opt : line minimisation
left   ...       0.00000000    -469.92331342
centre ...       0.26087999    -469.94200593
right  ...       0.52175998    -469.95612677

left   ...       0.00000000    -469.92331342
centre ...       0.26087999    -469.94200593
right  ...       0.52175998    -469.95612677
new    ...       1.19711924    -469.97286690

__s__    ...       0.67535926

left   ...       0.26087999    -469.94200593
centre ...       0.52175998    -469.95612677
right  ...       1.19711924    -469.97286690
new    ...       1.25490658    -469.97301365

__s__    ...       0.05778734

 ALPHA AFTER:    1.2549065756723459     
  Cycle:     30 Energy:      -469.973014  Gnorm:      0.151849  CPU:    0.178
 Line minimisation2
 ALPHA BEFORE:    1.1154024683101400     
  ** Opt : line minimisation
left   ...       0.00000000    -469.97301365
centre ...       0.27885062    -469.98677166
right  ...       0.55770123    -469.99655833

left   ...       0.00000000    -469.97301365
centre ...       0.27885062    -469.98677166
right  ...       0.55770123    -469.99655833
new    ...       1.10545491    -470.00484215

__s__    ...       0.54775368

left   ...       0.27885062    -469.98677166
centre ...       0.55770123    -469.99655833
right  ...       1.10545491    -470.00484215
new    ...       1.14452123    -470.00485044

__s__    ...       0.03906631

 ALPHA AFTER:    1.1445212289226294     
  Cycle:     31 Energy:      -470.004850  Gnorm:      0.162236  CPU:    0.182
 Line minimisation2
 ALPHA BEFORE:    1.0038548510957725     
  ** Opt : line minimisation
left   ...       0.00000000    -470.00485044
centre ...       0.25096371    -470.01581485
right  ...       0.50192743    -470.02277698

left   ...       0.00000000    -470.00485044
centre ...       0.25096371    -470.01581485
right  ...       0.50192743    -470.02277698
new    ...       0.81300699    -470.02545802

__s__    ...       0.31107956

 ALPHA AFTER:   0.81300698716153308     
  Cycle:     32 Energy:      -470.025458  Gnorm:      0.123321  CPU:    0.186
 Line minimisation2
 ALPHA BEFORE:    1.2398316073558118     
  ** Opt : line minimisation
left   ...       0.00000000    -470.02545802
centre ...       0.30995790    -470.03250322
right  ...       0.61991580    -470.03744237

left   ...       0.00000000    -470.02545802
centre ...       0.30995790    -470.03250322
right  ...       0.61991580    -470.03744237
new    ...       1.19185316    -470.04062733

__s__    ...       0.57193736

left   ...       0.30995790    -470.03250322
centre ...       0.61991580    -470.03744237
right  ...       1.19185316    -470.04062733
new    ...       1.14276212    -470.04068451

__s__    ...      -0.04909105

 ALPHA AFTER:    1.1427621151014926     
  Cycle:     33 Energy:      -470.040685  Gnorm:      0.106134  CPU:    0.190
 Line minimisation2
 ALPHA BEFORE:    1.2543971792404018     
  ** Opt : line minimisation
left   ...       0.00000000    -470.04068451
centre ...       0.31359929    -470.04619676
right  ...       0.62719859    -470.05063086

left   ...       0.00000000    -470.04068451
centre ...       0.31359929    -470.04619676
right  ...       0.62719859    -470.05063086
new    ...       1.62719859    -470.05380661

__s__    ...       1.00000000

left   ...       0.31359929    -470.04619676
centre ...       0.62719859    -470.05063086
right  ...       1.62719859    -470.05380661
new    ...       1.31744740    -470.05460237

__s__    ...      -0.30975119

 ALPHA AFTER:    1.3174474017372522     
  Cycle:     34 Energy:      -470.054602  Gnorm:      0.097272  CPU:    0.195
 Line minimisation2
 ALPHA BEFORE:   0.97468083663846250     
  ** Opt : line minimisation
left   ...       0.00000000    -470.05460237
centre ...       0.24367021    -470.05963852
right  ...       0.48734042    -470.06402983

left   ...       0.00000000    -470.05460237
centre ...       0.24367021    -470.05963852
right  ...       0.48734042    -470.06402983
new    ...       1.48734042    -470.07455421

__s__    ...       1.00000000

left   ...       0.24367021    -470.05963852
centre ...       0.48734042    -470.06402983
right  ...       1.48734042    -470.07455421
new    ...       1.86025888    -470.07479446

__s__    ...       0.37291846

 ALPHA AFTER:    1.8602588801994575     
  Cycle:     35 Energy:      -470.074794  Gnorm:      0.124006  CPU:    0.199
 Line minimisation2
 ALPHA BEFORE:    2.1219341062739119     
  ** Opt : line minimisation
left   ...       0.00000000    -470.07479446
centre ...       0.53048353    -470.08540445
right  ...       1.06096705    -470.09464619

left   ...       0.00000000    -470.07479446
centre ...       0.53048353    -470.08540445
right  ...       1.06096705    -470.09464619
new    ...       2.06096705    -470.09864366

__s__    ...       1.00000000

 ALPHA AFTER:    2.0609670531369559     
  Cycle:     36 Energy:      -470.098644  Gnorm:      0.146986  CPU:    0.203
 Line minimisation2
 ALPHA BEFORE:    1.5571288591517685     
  ** Opt : line minimisation
left   ...       0.00000000    -470.09864366
centre ...       0.38928221    -470.11192053
right  ...       0.77856443    -470.12108463

left   ...       0.00000000    -470.09864366
centre ...       0.38928221    -470.11192053
right  ...       0.77856443    -470.12108463
new    ...       1.45132438    -470.12717136

__s__    ...       0.67275995

left   ...       0.38928221    -470.11192053
centre ...       0.77856443    -470.12108463
right  ...       1.45132438    -470.12717136
new    ...       1.44642568    -470.12717778

__s__    ...      -0.00489870

 ALPHA AFTER:    1.4464256788097225     
  Cycle:     37 Energy:      -470.127178  Gnorm:      0.193483  CPU:    0.208
 Line minimisation2
 ALPHA BEFORE:   0.96428378587314834     
  ** Opt : line minimisation
left   ...       0.00000000    -470.12717778
centre ...       0.24107095    -470.13925512
right  ...       0.48214189    -470.14987519

left   ...       0.00000000    -470.12717778
centre ...       0.24107095    -470.13925512
right  ...       0.48214189    -470.14987519
new    ...       1.48214189    -470.17245898

__s__    ...       1.00000000

left   ...       0.24107095    -470.13925512
centre ...       0.48214189    -470.14987519
right  ...       1.48214189    -470.17245898
new    ...       1.63487074    -470.17277207

__s__    ...       0.15272885

 ALPHA AFTER:    1.6348707395410160     
  Cycle:     38 Energy:      -470.172772  Gnorm:      0.180264  CPU:    0.212
  ** Hessian calculated **
 Line minimisation2
 ALPHA BEFORE:    1.0000000000000000     
  ** Opt : line minimisation
left   ...       0.00000000    -470.17277207
centre ...       0.25000000    -470.18266187
right  ...       0.50000000    -470.19244363

left   ...       0.00000000    -470.17277207
centre ...       0.25000000    -470.18266187
right  ...       0.50000000    -470.19244363
new    ...       1.50000000    -470.22675152

__s__    ...       1.00000000

left   ...       0.25000000    -470.18266187
centre ...       0.50000000    -470.19244363
right  ...       1.50000000    -470.22675152
new    ...       2.50000000    -470.25169450

__s__    ...       1.00000000

left   ...       0.50000000    -470.19244363
centre ...       1.50000000    -470.22675152
right  ...       2.50000000    -470.25169450
new    ...       3.50000000    -470.26269420

__s__    ...       1.00000000

 ALPHA AFTER:    3.5000000000000000     
  Cycle:     39 Energy:      -470.262694  Gnorm:      0.140255  CPU:    0.221
  ** Hessian calculated **
 Line minimisation2
 ALPHA BEFORE:    1.0000000000000000     
  ** Opt : line minimisation
left   ...       0.00000000    -470.26269420
centre ...       0.25000000    -470.28344196
right  ...       0.50000000    -470.30237996

left   ...       0.00000000    -470.26269420
centre ...       0.25000000    -470.28344196
right  ...       0.50000000    -470.30237996
new    ...       1.50000000    -470.35017457

__s__    ...       1.00000000

left   ...       0.25000000    -470.28344196
centre ...       0.50000000    -470.30237996
right  ...       1.50000000    -470.35017457
new    ...       2.06846925    -470.33917373

__s__    ...       0.56846925

 ALPHA AFTER:    1.5000000000000000     
  Cycle:     40 Energy:      -470.350175  Gnorm:      0.176850  CPU:    0.228
 Line minimisation2
 ALPHA BEFORE:    1.1905722620193926     
  ** Opt : line minimisation
left   ...       0.00000000    -470.35017457
centre ...       0.29764307    -470.37095805
right  ...       0.59528613    -470.38087337

left   ...       0.00000000    -470.35017457
centre ...       0.29764307    -470.37095805
right  ...       0.59528613    -470.38087337
new    ...       0.71801244    -470.38158482

__s__    ...       0.12272631

 ALPHA AFTER:   0.71801243898663569     
  Cycle:     41 Energy:      -470.381585  Gnorm:      0.155256  CPU:    0.232
 Line minimisation2
 ALPHA BEFORE:    1.5509625038694888     
  ** Opt : line minimisation
left   ...       0.00000000    -470.38158482
centre ...       0.38774063    -470.39909956
right  ...       0.77548125    -470.40249572

left   ...       0.00000000    -470.38158482
centre ...       0.38774063    -470.39909956
right  ...       0.77548125    -470.40249572
new    ...       0.67488029    -470.40289543

__s__    ...      -0.10060097

 ALPHA AFTER:   0.67488028572926373     
  Cycle:     42 Energy:      -470.402895  Gnorm:      0.070783  CPU:    0.235
 Line minimisation2
 ALPHA BEFORE:   0.44992019048617576     
  ** Opt : line minimisation
left   ...       0.00000000    -470.40289543
centre ...       0.11248005    -470.40573449
right  ...       0.22496010    -470.40817891

left   ...       0.00000000    -470.40289543
centre ...       0.11248005    -470.40573449
right  ...       0.22496010    -470.40817891
new    ...       0.86541666    -470.41073086

__s__    ...       0.64045657

left   ...       0.11248005    -470.40573449
centre ...       0.22496010    -470.40817891
right  ...       0.86541666    -470.41073086
new    ...       0.62971143    -470.41253995

__s__    ...      -0.23570523

 ALPHA AFTER:   0.62971142760844756     
  Cycle:     43 Energy:      -470.412540  Gnorm:      0.120522  CPU:    0.240
 Line minimisation2
 ALPHA BEFORE:   0.58040354472914768     
  ** Opt : line minimisation
left   ...       0.00000000    -470.41253995
centre ...       0.14510089    -470.41658084
right  ...       0.29020177    -470.42042613

left   ...       0.00000000    -470.41253995
centre ...       0.14510089    -470.41658084
right  ...       0.29020177    -470.42042613
new    ...       1.29020177    -470.40492154

__s__    ...       1.00000000

left   ...       0.14510089    -470.41658084
centre ...       0.29020177    -470.42042613
right  ...       1.29020177    -470.40492154
new    ...       0.57886803    -470.42374855

__s__    ...      -0.71133374

left   ...       0.29020177    -470.42042613
centre ...       0.57886803    -470.42374855
right  ...       1.29020177    -470.40492154
new    ...       0.58606893    -470.42377029

__s__    ...       0.00720090

 ALPHA AFTER:   0.58606893099861646     
  Cycle:     44 Energy:      -470.423770  Gnorm:      0.133950  CPU:    0.245
 Line minimisation2
 ALPHA BEFORE:   0.83597584687252469     
  ** Opt : line minimisation
left   ...       0.00000000    -470.42377029
centre ...       0.20899396    -470.42955430
right  ...       0.41798792    -470.43424572

left   ...       0.00000000    -470.42377029
centre ...       0.20899396    -470.42955430
right  ...       0.41798792    -470.43424572
new    ...       1.21089323    -470.44086240

__s__    ...       0.79290530

left   ...       0.20899396    -470.42955430
centre ...       0.41798792    -470.43424572
right  ...       1.21089323    -470.44086240
new    ...       1.11086030    -470.44101867

__s__    ...      -0.10003293

 ALPHA AFTER:    1.1108602988162803     
  Cycle:     45 Energy:      -470.441019  Gnorm:      0.088582  CPU:    0.249
 Line minimisation2
 ALPHA BEFORE:    1.6135331789309180     
  ** Opt : line minimisation
left   ...       0.00000000    -470.44101867
centre ...       0.40338329    -470.44662366
right  ...       0.80676659    -470.44454296

left   ...       0.00000000    -470.44101867
centre ...       0.40338329    -470.44662366
right  ...       0.80676659    -470.44454296
new    ...       0.49586927    -470.44663795

__s__    ...      -0.31089732

left   ...       0.40338329    -470.44662366
centre ...       0.49586927    -470.44663795
right  ...       0.80676659    -470.44454296
new    ...       0.45414554    -470.44677740

__s__    ...      -0.04172373

 ALPHA AFTER:   0.45414554288722675     
  Cycle:     46 Energy:      -470.446777  Gnorm:      0.052061  CPU:    0.254
 Line minimisation2
 ALPHA BEFORE:   0.73409397916333075     
  ** Opt : line minimisation
left   ...       0.00000000    -470.44677740
centre ...       0.18352349    -470.44838545
right  ...       0.36704699    -470.45010200

left   ...       0.00000000    -470.44677740
centre ...       0.18352349    -470.44838545
right  ...       0.36704699    -470.45010200
new    ...       0.73409398    -470.45180665

__s__    ...       0.36704699

left   ...       0.18352349    -470.44838545
centre ...       0.36704699    -470.45010200
right  ...       0.73409398    -470.45180665
new    ...       0.82206488    -470.45195575

__s__    ...       0.08797090

 ALPHA AFTER:   0.82206488233956221     
  Cycle:     47 Energy:      -470.451956  Gnorm:      0.026522  CPU:    0.258
 Line minimisation2
 ALPHA BEFORE:    1.4902695734527736     
  ** Opt : line minimisation
left   ...       0.00000000    -470.45195575
centre ...       0.37256739    -470.45328308
right  ...       0.74513479    -470.45485356

left   ...       0.00000000    -470.45195575
centre ...       0.37256739    -470.45328308
right  ...       0.74513479    -470.45485356
new    ...       1.49026957    -470.45535803

__s__    ...       0.74513479

 ALPHA AFTER:    1.4902695734527733     
  Cycle:     48 Energy:      -470.455358  Gnorm:      0.028624  CPU:    0.262
 Line minimisation2
 ALPHA BEFORE:    3.9753173779622100     
  ** Opt : line minimisation
left   ...       0.00000000    -470.45535803
centre ...       0.99382934    -470.45639205
right  ...       1.98765869    -470.45591771

left   ...       0.00000000    -470.45535803
centre ...       0.99382934    -470.45639205
right  ...       1.98765869    -470.45591771
new    ...       1.17821197    -470.45638566

__s__    ...      -0.80944672

left   ...       0.00000000    -470.45535803
centre ...       0.99382934    -470.45639205
right  ...       1.17821197    -470.45638566
new    ...       1.06703237    -470.45639573

__s__    ...      -0.11117959

 ALPHA AFTER:    1.0670323748392183     
  Cycle:     49 Energy:      -470.456396  Gnorm:      0.014064  CPU:    0.266
  ** Hessian calculated **
 Line minimisation2
 ALPHA BEFORE:    1.0000000000000000     
  ** Opt : line minimisation
left   ...       0.00000000    -470.45639573
centre ...       0.25000000    -470.45678176
right  ...       0.50000000    -470.45696427

left   ...       0.00000000    -470.45639573
centre ...       0.25000000    -470.45678176
right  ...       0.50000000    -470.45696427
new    ...       0.59918467    -470.45702883

__s__    ...       0.09918467

 ALPHA AFTER:   0.59918467191891467     
  Cycle:     50 Energy:      -470.457029  Gnorm:      0.011536  CPU:    0.273
 Line minimisation2
 ALPHA BEFORE:   0.39945644794594304     
  ** Opt : line minimisation
left   ...       0.00000000    -470.45702883
centre ...       0.09986411    -470.45712632
right  ...       0.19972822    -470.45721344

left   ...       0.00000000    -470.45702883
centre ...       0.09986411    -470.45712632
right  ...       0.19972822    -470.45721344
new    ...       0.98826866    -470.45735193

__s__    ...       0.78854044

left   ...       0.09986411    -470.45712632
centre ...       0.19972822    -470.45721344
right  ...       0.98826866    -470.45735193
new    ...       0.70597679    -470.45730446

__s__    ...      -0.28229187

 ALPHA AFTER:   0.98826866230025734     
  Cycle:     51 Energy:      -470.457352  Gnorm:      0.002363  CPU:    0.277
 Line minimisation2
 ALPHA BEFORE:    9.2312456763885642     
  ** Opt : line minimisation
left   ...       0.00000000    -470.45735193
centre ...       1.00000000    -470.45736921
right  ...       2.00000000    -470.45736365

left   ...       0.00000000    -470.45735193
centre ...       1.00000000    -470.45736921
right  ...       2.00000000    -470.45736365
new    ...       1.25638733    -470.45736992

__s__    ...      -0.74361267

left   ...       1.00000000    -470.45736921
centre ...       1.25638733    -470.45736992
right  ...       2.00000000    -470.45736365
new    ...       1.25166932    -470.45736992

__s__    ...      -0.00471800

 ALPHA AFTER:    1.2516693227722386     
  Cycle:     52 Energy:      -470.457370  Gnorm:      0.000640  CPU:    0.282
 Line minimisation2
 ALPHA BEFORE:    4.4684491393260988     
  ** Opt : line minimisation
left   ...       0.00000000    -470.45736992
centre ...       1.00000000    -470.45737062
right  ...       2.00000000    -470.45736989

left   ...       0.00000000    -470.45736992
centre ...       1.00000000    -470.45737062
right  ...       2.00000000    -470.45736989
new    ...       1.00000000    -470.45737062

__s__    ...      -1.00000000

 ALPHA AFTER:    1.0000000000000000     
  Cycle:     53 Energy:      -470.457371  Gnorm:      0.000473  CPU:    0.285
 Line minimisation2
 ALPHA BEFORE:    3.3351373437349081     
  ** Opt : line minimisation
left   ...       0.00000000    -470.45737062
centre ...       0.83378434    -470.45737076
right  ...       1.66756867    -470.45737059

left   ...       0.00000000    -470.45737062
centre ...       0.83378434    -470.45737076
right  ...       1.66756867    -470.45737059
new    ...       0.78984806    -470.45737076

__s__    ...      -0.87772061

 ALPHA AFTER:   0.78984806234987426     


  **** Optimisation achieved ****


  Final energy =    -470.45737076 eV
  Final Gnorm  =       0.00020661

  Components of energy : 

--------------------------------------------------------------------------------
  Interatomic potentials     =          70.35668217 eV    
  Monopole - monopole (real) =        -256.48146286 eV    
  Monopole - monopole (recip)=        -284.33259008 eV    
  Monopole - monopole (total)=        -540.81405293 eV    
--------------------------------------------------------------------------------
  Total lattice energy       =        -470.45737076 eV    
--------------------------------------------------------------------------------
  Total lattice energy       =          -45391.9447 kJ/(mole unit cells)
--------------------------------------------------------------------------------

  Final fractional coordinates of atoms :

--------------------------------------------------------------------------------
   No.  Atomic        x           y          z          Radius
        Label       (Frac)      (Frac)     (Frac)       (Angs) 
--------------------------------------------------------------------------------
     1  O     c     0.500000    0.500000    0.750000    0.000000
     2  O     c     0.475336    0.019123    0.780307    0.000000
     3  O     c     0.083977    0.670372    0.637234    0.000000
     4  O     c     0.813995    0.340123    0.968160    0.000000
     5  O     c     0.769860    0.991053    0.253350    0.000000
     6  O     c     0.368004    0.158808    0.121374    0.000000
     7  O     c     0.360835    0.643571    0.092255    0.000000
     8  O     c     0.567012    0.657215    0.417851    0.000000
     9  O     c     0.268489    0.010395    0.451219    0.000000
    10  Sr    c     0.971460    0.467643    0.278547    0.000000
    11  Sr    c     0.967371    0.836152    0.957271    0.000000
    12  Sr    c     0.892855    0.192238    0.604018    0.000000
    13  Ti    c     0.392627    0.733501    0.621098    0.000000
    14  Ti    c     0.492195    0.331836    0.946260    0.000000
    15  Ti    c     0.462787    0.921825    0.258787    0.000000
--------------------------------------------------------------------------------

  Final Cartesian lattice vectors (Angstroms) :

        5.667278    0.135195    0.078818
        0.135195    5.233461   -0.518542
        0.157635   -1.037083    7.716413


  Final cell parameters and derivatives :

--------------------------------------------------------------------------------
       a            5.669438 Angstrom     dE/de1(xx)     0.003678 eV/strain
       b            5.260825 Angstrom     dE/de2(yy)     0.001486 eV/strain
       c            7.787388 Angstrom     dE/de3(zz)     0.001437 eV/strain
       alpha      103.275296 Degrees      dE/de4(yz)    -0.000302 eV/strain
       beta        88.233038 Degrees      dE/de5(xz)     0.000278 eV/strain
       gamma       87.246420 Degrees      dE/de6(xy)     0.000069 eV/strain
--------------------------------------------------------------------------------

  Primitive cell volume =           225.588906 Angs**3

  Density of cell =      4.052244 g/cm**3

  Non-primitive cell volume =           225.588906 Angs**3


  Final internal derivatives :

--------------------------------------------------------------------------------
   No.  Atomic          a             b             c           Radius
        Label          (eV)          (eV)          (eV)        (eV/Angs)
--------------------------------------------------------------------------------
      1 O     c       0.000000      0.000000      0.000000      0.000000
      2 O     c       0.000679      0.001484      0.001741      0.000000
      3 O     c      -0.004490     -0.000856      0.000901      0.000000
      4 O     c       0.003519      0.000005     -0.000202      0.000000
      5 O     c       0.002957      0.000544     -0.000125      0.000000
      6 O     c      -0.000209      0.000234      0.000782      0.000000
      7 O     c      -0.000346     -0.000299      0.001452      0.000000
      8 O     c      -0.001380     -0.001455     -0.000089      0.000000
      9 O     c      -0.000248      0.000364     -0.001071      0.000000
     10 Sr    c      -0.000031     -0.000282      0.000241      0.000000
     11 Sr    c       0.000077     -0.000104      0.000154      0.000000
     12 Sr    c      -0.000638      0.000690     -0.001023      0.000000
     13 Ti    c       0.002944      0.000245     -0.002185      0.000000
     14 Ti    c      -0.002261     -0.000575      0.000042      0.000000
     15 Ti    c      -0.001202     -0.000262      0.000735      0.000000
--------------------------------------------------------------------------------
  Maximum abs         0.004490      0.001484      0.002185      0.000000
--------------------------------------------------------------------------------


  Time to end of optimisation =       0.2891 seconds

 Exiting ------OPTIONS------

  Peak dynamic memory used =       0.60 MB 


  Timing analysis for GULP :

--------------------------------------------------------------------------------
  Task / Subroutine                                          Time (Seconds)
--------------------------------------------------------------------------------
  Calculation of reciprocal space energy and derivatives          0.0362
  Calculation of real space energy and derivatives                0.2416
  Calculation of matrix inversion                                 0.0002
  Global summation overhead                                       0.0002
--------------------------------------------------------------------------------
  Total CPU time                                                  0.2891
--------------------------------------------------------------------------------


  Job Finished at 16:28.19  3rd February   2020                               

