********************************************************************************
*                       GENERAL UTILITY LATTICE PROGRAM                        *
*                                 Julian Gale                                  *
*                       Curtin Institute for Computation                       *
*                           Department of Chemistry                            *
*                    Curtin University, Western Australia                      *
********************************************************************************
* Version = 5.1.1 * Last modified =  25th August 2019                          *
********************************************************************************
*  optimise     - perform optimisation run                                     *
*  conp         - constant pressure calculation                                *
*  nosymmetry   - turn off symmetry after initial structure generation         *
*  full         - generate full unit cell when symmetry is removed             *
*  conjugate    - use conjugate gradients minimiser                            *
********************************************************************************
* ASE calculation                                                              *
********************************************************************************


  Job Started  at 12:02.50  4th February   2020                               

  Number of CPUs =     1


  Total number of configurations input =      1

********************************************************************************
*  Input for Configuration =   1                                               *
********************************************************************************

  Formula = O9Sr3Ti3                                                    

  Number of irreducible atoms/shells =      15


  Total number atoms/shells =      15

  Dimensionality = 3               :  Bulk   



  Cartesian lattice vectors (Angstroms) :

        6.000000    0.000000    0.000000
        0.000000    6.000000    0.000000
        0.000000    0.000000   12.000000

  Cell parameters (Angstroms/Degrees):

  a =       6.0000    alpha =  90.0000
  b =       6.0000    beta  =  90.0000
  c =      12.0000    gamma =  90.0000

  Initial cell volume =         432.000000 Angs**3

  Temperature of configuration =  0.000     K 

  Pressure of configuration =         0.000 GPa 

  Fractional coordinates of asymmetric unit :

--------------------------------------------------------------------------------
   No.  Atomic       x           y          z         Charge      Occupancy
        Label      (Frac)      (Frac)     (Frac)        (e)         (Frac)  
--------------------------------------------------------------------------------
      1 O     c    0.000000    0.333330    0.833330    -2.00000    1.000000    
      2 O     c    0.666670 *  0.666670 *  0.000000 *  -2.00000    1.000000    
      3 O     c    0.333330 *  0.666670 *  0.166670 *  -2.00000    1.000000    
      4 O     c    0.333330 *  0.000000 *  0.166670 *  -2.00000    1.000000    
      5 O     c    0.333330 *  0.333330 *  0.166670 *  -2.00000    1.000000    
      6 O     c    0.333330 *  0.333330 *  0.833330 *  -2.00000    1.000000    
      7 O     c    0.333330 *  0.000000 *  0.500000 *  -2.00000    1.000000    
      8 O     c    0.666670 *  0.000000 *  0.000000 *  -2.00000    1.000000    
      9 O     c    0.666670 *  0.000000 *  0.166670 *  -2.00000    1.000000    
     10 Sr    c    0.500000 *  0.833330 *  0.916670 *   2.00000    1.000000    
     11 Sr    c    0.166670 *  0.500000 *  0.916670 *   2.00000    1.000000    
     12 Sr    c    0.166670 *  0.833330 *  0.416670 *   2.00000    1.000000    
     13 Ti    c    0.833330 *  0.500000 *  0.416670 *   4.00000    1.000000    
     14 Ti    c    0.166670 *  0.166670 *  0.916670 *   4.00000    1.000000    
     15 Ti    c    0.833330 *  0.833330 *  0.583330 *   4.00000    1.000000    
--------------------------------------------------------------------------------



********************************************************************************
*  General input information                                                   *
********************************************************************************

  Species output for all configurations : 

--------------------------------------------------------------------------------
  Species    Type    Atomic    Atomic    Charge       Radii (Angs)     Library
                     Number     Mass       (e)     Cova   Ionic  VDW   Symbol
--------------------------------------------------------------------------------
    O        Core        8      16.00  -2.000000   0.730  0.000  1.360          
    Sr       Core       38      87.62   2.000000   1.120  0.000  1.670          
    Ti       Core       22      47.88   4.000000   1.470  0.000  2.190          
--------------------------------------------------------------------------------


  Lattice summation method               =    Ewald          (3-D)
                                         =    Parry          (2-D)
                                         =    Saunders et al (1-D)
  Accuracy factor for lattice sums       =   12.000


  Time limit = Infinity

  Maximum range for interatomic potentials =    100000.000000 Angstroms

  General interatomic potentials :

--------------------------------------------------------------------------------
Atom  Types   Potential      Parameter       Value         Units   Cutoffs(Ang)
  1     2                                                            Min /  Max 
--------------------------------------------------------------------------------
O    c Sr   c Buckingham    Buckingham A     1952.3900    eV        0.000 10.000
                            Buckingham rho  0.33685000    Ang       
                            Buckingham C     19.220000    eV*Ang^6  
--------------------------------------------------------------------------------
O    c Ti   c Buckingham    Buckingham A     4590.7279    eV        0.000 10.000
                            Buckingham rho  0.26100000    Ang       
                            Buckingham C     0.0000000    eV*Ang^6  
--------------------------------------------------------------------------------
O    c O    c Buckingham    Buckingham A     1388.7700    eV        0.000 10.000
                            Buckingham rho  0.36262000    Ang       
                            Buckingham C     175.00000    eV*Ang^6  
--------------------------------------------------------------------------------
 Calling ------OPTIONS------

********************************************************************************
*  Output for configuration   1                                                *
********************************************************************************


  Components of energy : 

--------------------------------------------------------------------------------
  Interatomic potentials     =          86.73882635 eV    
  Monopole - monopole (real) =         -15.03500613 eV    
  Monopole - monopole (recip)=        -125.05826005 eV    
  Monopole - monopole (total)=        -140.09326618 eV    
--------------------------------------------------------------------------------
  Total lattice energy       =         -53.35443983 eV    
--------------------------------------------------------------------------------
  Total lattice energy       =           -5147.8878 kJ/(mole unit cells)
--------------------------------------------------------------------------------


  Number of variables =       48

  Maximum number of calculations  =          1000
  Maximum Hessian update interval =            10
  Maximum step size               =   1.000000000
  Maximum parameter tolerance     =   0.000010000
  Maximum function  tolerance     =   0.000010000
  Maximum gradient  tolerance     =   0.001000000
  Maximum gradient  component     =   0.010000000

  Cell parameters to be optimised using strains

  Conjugate gradient optimiser to be used

  Lower half triangular hessian to be used

  Minimiser to switch to BFGS with exact hessian
  When gradient norm is less than     0.500000

  Start of bulk optimisation :

  Cycle:      0 Energy:       -53.354440  Gnorm:     31.391907  CPU:    0.012
 Perform trimming
 Line minimisation2
 ALPHA BEFORE:    1.0000000000000000     
  ** Opt : line minimisation
left   ...       0.00000000     -53.35443983
centre ...       0.25000000    -118.66801073
right  ...       0.50000000    -168.59695500

left   ...       0.00000000     -53.35443983
centre ...       0.25000000    -118.66801073
right  ...       0.50000000    -168.59695500
new    ...       1.18634475    -253.88567143

__s__    ...       0.68634475

left   ...       0.25000000    -118.66801073
centre ...       0.50000000    -168.59695500
right  ...       1.18634475    -253.88567143
new    ...       1.61423926    -275.96437803

__s__    ...       0.42789451

left   ...       0.50000000    -168.59695500
centre ...       1.18634475    -253.88567143
right  ...       1.61423926    -275.96437803
new    ...       1.79588653    -278.25586204

__s__    ...       0.18164727

left   ...       1.18634475    -253.88567143
centre ...       1.61423926    -275.96437803
right  ...       1.79588653    -278.25586204
new    ...       1.80368654    -278.26112510

__s__    ...       0.00780001

 ALPHA AFTER:    1.8036865373670468     
  Cycle:      1 Energy:      -278.261125  Gnorm:      9.633754  CPU:    0.023
 Perform trimming
 Line minimisation2
 ALPHA BEFORE:    1.8036865373670468     
  ** Opt : line minimisation
left   ...       0.00000000    -278.26112510
centre ...       0.45092163    -313.86530737
right  ...       0.90184327    -207.04532650

left   ...       0.00000000    -278.26112510
centre ...       0.45092163    -313.86530737
right  ...       0.90184327    -207.04532650
new    ...       0.33818534    -311.31476031

__s__    ...      -0.56365793

left   ...       0.33818534    -311.31476031
centre ...       0.45092163    -313.86530737
right  ...       0.90184327    -207.04532650
new    ...       0.41912264    -313.89304184

__s__    ...       0.08093730

left   ...       0.33818534    -311.31476031
centre ...       0.41912264    -313.89304184
right  ...       0.45092163    -313.86530737
new    ...       0.43351994    -313.96528295

__s__    ...       0.01439730

 ALPHA AFTER:   0.43351993591050947     
  Cycle:      2 Energy:      -313.965283  Gnorm:     10.323993  CPU:    0.030
 Perform trimming
 Line minimisation2
 ALPHA BEFORE:   0.43351993591050947     
  ** Opt : line minimisation
left   ...       0.00000000    -313.96528295
centre ...       0.10837998    -328.49618483
right  ...       0.21675997    -336.95913787

left   ...       0.00000000    -313.96528295
centre ...       0.10837998    -328.49618483
right  ...       0.21675997    -336.95913787
new    ...       0.31372727    -342.32922179

__s__    ...       0.09696730

left   ...       0.10837998    -328.49618483
centre ...       0.21675997    -336.95913787
right  ...       0.31372727    -342.32922179
new    ...       0.51567117    -348.64034353

__s__    ...       0.20194390

left   ...       0.21675997    -336.95913787
centre ...       0.31372727    -342.32922179
right  ...       0.51567117    -348.64034353
new    ...       0.60827795    -347.11950994

__s__    ...       0.09260678

left   ...       0.31372727    -342.32922179
centre ...       0.51567117    -348.64034353
right  ...       0.60827795    -347.11950994
new    ...       0.51124229    -348.61199333

__s__    ...      -0.09703565

left   ...       0.51124229    -348.61199333
centre ...       0.51567117    -348.64034353
right  ...       0.60827795    -347.11950994
new    ...       0.52706422    -348.67815793

__s__    ...       0.01582193

 ALPHA AFTER:   0.52706422453083079     
  Cycle:      3 Energy:      -348.678158  Gnorm:      9.744716  CPU:    0.037
 Line minimisation2
 ALPHA BEFORE:   0.52706422453083079     
  ** Opt : line minimisation
left   ...       0.00000000    -348.67815793
centre ...       0.13176606    -366.24553655
right  ...       0.26353211    -289.68166079

left   ...       0.00000000    -348.67815793
centre ...       0.13176606    -366.24553655
right  ...       0.26353211    -289.68166079
new    ...       0.09047405    -364.53473298

__s__    ...      -0.17305806

left   ...       0.09047405    -364.53473298
centre ...       0.13176606    -366.24553655
right  ...       0.26353211    -289.68166079
new    ...       0.11687927    -366.27877170

__s__    ...       0.02640521

left   ...       0.09047405    -364.53473298
centre ...       0.11687927    -366.27877170
right  ...       0.13176606    -366.24553655
new    ...       0.12364762    -366.36882043

__s__    ...       0.00676836

 ALPHA AFTER:   0.12364762186028617     
  Cycle:      4 Energy:      -366.368820  Gnorm:      9.373926  CPU:    0.041
 Line minimisation2
 ALPHA BEFORE:   0.12364762186028617     
  ** Opt : line minimisation
left   ...       0.00000000    -366.36882043
centre ...       0.03091191    -372.06395627
right  ...       0.06182381    -376.60536376

left   ...       0.00000000    -366.36882043
centre ...       0.03091191    -372.06395627
right  ...       0.06182381    -376.60536376
new    ...       0.16804603    -383.45823040

__s__    ...       0.10622222

left   ...       0.03091191    -372.06395627
centre ...       0.06182381    -376.60536376
right  ...       0.16804603    -383.45823040
new    ...       0.16861892    -383.45951421

__s__    ...       0.00057288

 ALPHA AFTER:   0.16861891777557195     
  Cycle:      5 Energy:      -383.459514  Gnorm:     10.122750  CPU:    0.045
 Line minimisation2
 ALPHA BEFORE:   0.16861891777557195     
  ** Opt : line minimisation
left   ...       0.00000000    -383.45951421
centre ...       0.04215473    -390.59663227
right  ...       0.08430946    -393.66758737

left   ...       0.00000000    -383.45951421
centre ...       0.04215473    -390.59663227
right  ...       0.08430946    -393.66758737
new    ...       0.09506930    -394.00163825

__s__    ...       0.01075984

 ALPHA AFTER:    9.5069303273707773E-002
  Cycle:      6 Energy:      -394.001638  Gnorm:      7.875622  CPU:    0.048
 Line minimisation2
 ALPHA BEFORE:    9.5069303273707773E-002
  ** Opt : line minimisation
left   ...       0.00000000    -394.00163825
centre ...       0.02376733    -397.46787865
right  ...       0.04753465    -400.54092754

left   ...       0.00000000    -394.00163825
centre ...       0.02376733    -397.46787865
right  ...       0.04753465    -400.54092754
new    ...       0.22140818    -409.00340274

__s__    ...       0.17387353

left   ...       0.02376733    -397.46787865
centre ...       0.04753465    -400.54092754
right  ...       0.22140818    -409.00340274
new    ...       0.19412419    -409.59728572

__s__    ...      -0.02728400

left   ...       0.04753465    -400.54092754
centre ...       0.19412419    -409.59728572
right  ...       0.22140818    -409.00340274
new    ...       0.18511635    -409.60933571

__s__    ...      -0.00900783

 ALPHA AFTER:   0.18511635336309865     
  Cycle:      7 Energy:      -409.609336  Gnorm:      5.169000  CPU:    0.053
 Line minimisation2
 ALPHA BEFORE:   0.18511635336309865     
  ** Opt : line minimisation
left   ...       0.00000000    -409.60933571
centre ...       0.04627909    -412.03805314
right  ...       0.09255818    -413.59352403

left   ...       0.00000000    -409.60933571
centre ...       0.04627909    -412.03805314
right  ...       0.09255818    -413.59352403
new    ...       0.15185328    -414.57555438

__s__    ...       0.05929511

left   ...       0.04627909    -412.03805314
centre ...       0.09255818    -413.59352403
right  ...       0.15185328    -414.57555438
new    ...       0.17348442    -414.70248329

__s__    ...       0.02163114

 ALPHA AFTER:   0.17348442471467709     
  Cycle:      8 Energy:      -414.702483  Gnorm:      5.432087  CPU:    0.057
 Line minimisation2
 ALPHA BEFORE:   0.17348442471467709     
  ** Opt : line minimisation
left   ...       0.00000000    -414.70248329
centre ...       0.04337111    -417.53902813
right  ...       0.08674221    -419.85590721

left   ...       0.00000000    -414.70248329
centre ...       0.04337111    -417.53902813
right  ...       0.08674221    -419.85590721
new    ...       0.25842251    -424.31186834

__s__    ...       0.17168030

left   ...       0.04337111    -417.53902813
centre ...       0.08674221    -419.85590721
right  ...       0.25842251    -424.31186834
new    ...       0.27419682    -424.35968547

__s__    ...       0.01577431

 ALPHA AFTER:   0.27419681763664078     
  Cycle:      9 Energy:      -424.359685  Gnorm:      5.549823  CPU:    0.062
 Line minimisation2
 ALPHA BEFORE:   0.27419681763664078     
  ** Opt : line minimisation
left   ...       0.00000000    -424.35968547
centre ...       0.06854920    -428.44210897
right  ...       0.13709841    -430.48089718

left   ...       0.00000000    -424.35968547
centre ...       0.06854920    -428.44210897
right  ...       0.13709841    -430.48089718
new    ...       0.17121043    -430.46865990

__s__    ...       0.03411202

 ALPHA AFTER:   0.13709840881832039     
  Cycle:     10 Energy:      -430.480897  Gnorm:      3.629462  CPU:    0.065
 Line minimisation2
 ALPHA BEFORE:   0.13709840881832039     
  ** Opt : line minimisation
left   ...       0.00000000    -430.48089718
centre ...       0.03427460    -431.55002174
right  ...       0.06854920    -432.47594250

left   ...       0.00000000    -430.48089718
centre ...       0.03427460    -431.55002174
right  ...       0.06854920    -432.47594250
new    ...       0.27302309    -435.24120660

__s__    ...       0.20447388

left   ...       0.03427460    -431.55002174
centre ...       0.06854920    -432.47594250
right  ...       0.27302309    -435.24120660
new    ...       0.29045083    -435.26827231

__s__    ...       0.01742775

 ALPHA AFTER:   0.29045083384423631     
  Cycle:     11 Energy:      -435.268272  Gnorm:      3.544090  CPU:    0.069
 Line minimisation2
 ALPHA BEFORE:   0.29045083384423631     
  ** Opt : line minimisation
left   ...       0.00000000    -435.26827231
centre ...       0.07261271    -437.21375519
right  ...       0.14522542    -438.70995590

left   ...       0.00000000    -435.26827231
centre ...       0.07261271    -437.21375519
right  ...       0.14522542    -438.70995590
new    ...       0.35073410    -440.24219168

__s__    ...       0.20550869

left   ...       0.07261271    -437.21375519
centre ...       0.14522542    -438.70995590
right  ...       0.35073410    -440.24219168
new    ...       0.32682835    -440.28607881

__s__    ...      -0.02390575

 ALPHA AFTER:   0.32682835166717744     
  Cycle:     12 Energy:      -440.286079  Gnorm:      3.584659  CPU:    0.073
 Line minimisation2
 ALPHA BEFORE:   0.32682835166717744     
  ** Opt : line minimisation
left   ...       0.00000000    -440.28607881
centre ...       0.08170709    -442.38283544
right  ...       0.16341418    -443.90327473

left   ...       0.00000000    -440.28607881
centre ...       0.08170709    -442.38283544
right  ...       0.16341418    -443.90327473
new    ...       0.33812012    -445.42788397

__s__    ...       0.17470594

left   ...       0.08170709    -442.38283544
centre ...       0.16341418    -443.90327473
right  ...       0.33812012    -445.42788397
new    ...       0.36398878    -445.46665330

__s__    ...       0.02586867

 ALPHA AFTER:   0.36398878206075391     
  Cycle:     13 Energy:      -445.466653  Gnorm:      4.077131  CPU:    0.076
 Line minimisation2
 ALPHA BEFORE:   0.36398878206075391     
  ** Opt : line minimisation
left   ...       0.00000000    -445.46665330
centre ...       0.09099720    -448.00099191
right  ...       0.18199439    -448.27166634

left   ...       0.00000000    -445.46665330
centre ...       0.09099720    -448.00099191
right  ...       0.18199439    -448.27166634
new    ...       0.14737665    -448.47817101

__s__    ...      -0.03461774

 ALPHA AFTER:   0.14737665355903223     
  Cycle:     14 Energy:      -448.478171  Gnorm:      3.148754  CPU:    0.079
 Line minimisation2
 ALPHA BEFORE:   0.14737665355903223     
  ** Opt : line minimisation
left   ...       0.00000000    -448.47817101
centre ...       0.03684416    -449.27362719
right  ...       0.07368833    -449.97644110

left   ...       0.00000000    -448.47817101
centre ...       0.03684416    -449.27362719
right  ...       0.07368833    -449.97644110
new    ...       0.33477786    -452.49960298

__s__    ...       0.26108953

left   ...       0.03684416    -449.27362719
centre ...       0.07368833    -449.97644110
right  ...       0.33477786    -452.49960298
new    ...       0.35719871    -452.51821848

__s__    ...       0.02242085

 ALPHA AFTER:   0.35719870504015327     
  Cycle:     15 Energy:      -452.518218  Gnorm:      1.952356  CPU:    0.083
 Line minimisation2
 ALPHA BEFORE:   0.35719870504015327     
  ** Opt : line minimisation
left   ...       0.00000000    -452.51821848
centre ...       0.08929968    -453.25381201
right  ...       0.17859935    -453.86294304

left   ...       0.00000000    -452.51821848
centre ...       0.08929968    -453.25381201
right  ...       0.17859935    -453.86294304
new    ...       0.56407861    -454.80262613

__s__    ...       0.38547926

left   ...       0.08929968    -453.25381201
centre ...       0.17859935    -453.86294304
right  ...       0.56407861    -454.80262613
new    ...       0.50335323    -454.86416989

__s__    ...      -0.06072538

 ALPHA AFTER:   0.50335323499104256     
  Cycle:     16 Energy:      -454.864170  Gnorm:      2.341955  CPU:    0.086
 Perform trimming
 Line minimisation2
 ALPHA BEFORE:   0.50335323499104256     
  ** Opt : line minimisation
left   ...       0.00000000    -454.86416989
centre ...       0.12583831    -456.01331558
right  ...       0.25167662    -456.63672262

left   ...       0.00000000    -454.86416989
centre ...       0.12583831    -456.01331558
right  ...       0.25167662    -456.63672262
new    ...       0.33797321    -456.61746931

__s__    ...       0.08629659

 ALPHA AFTER:   0.25167661749552128     
  Cycle:     17 Energy:      -456.636723  Gnorm:      1.673606  CPU:    0.089
 Line minimisation2
 ALPHA BEFORE:   0.25167661749552128     
  ** Opt : line minimisation
left   ...       0.00000000    -456.63672262
centre ...       0.06291915    -456.98423771
right  ...       0.12583831    -457.22594245

left   ...       0.00000000    -456.63672262
centre ...       0.06291915    -456.98423771
right  ...       0.12583831    -457.22594245
new    ...       0.23810622    -457.42724139

__s__    ...       0.11226791

left   ...       0.06291915    -456.98423771
centre ...       0.12583831    -457.22594245
right  ...       0.23810622    -457.42724139
new    ...       0.25864202    -457.43535044

__s__    ...       0.02053580

 ALPHA AFTER:   0.25864201681216065     
  Cycle:     18 Energy:      -457.435350  Gnorm:      1.016826  CPU:    0.092
 Line minimisation2
 ALPHA BEFORE:   0.25864201681216065     
  ** Opt : line minimisation
left   ...       0.00000000    -457.43535044
centre ...       0.06466050    -457.58554709
right  ...       0.12932101    -457.71714814

left   ...       0.00000000    -457.43535044
centre ...       0.06466050    -457.58554709
right  ...       0.12932101    -457.71714814
new    ...       0.55459304    -458.09469567

__s__    ...       0.42527203

left   ...       0.06466050    -457.58554709
centre ...       0.12932101    -457.71714814
right  ...       0.55459304    -458.09469567
new    ...       0.53148131    -458.09684200

__s__    ...      -0.02311173

 ALPHA AFTER:   0.53148131012129118     
  Cycle:     19 Energy:      -458.096842  Gnorm:      0.931426  CPU:    0.096
 Line minimisation2
 ALPHA BEFORE:   0.53148131012129118     
  ** Opt : line minimisation
left   ...       0.00000000    -458.09684200
centre ...       0.13287033    -458.28112790
right  ...       0.26574066    -458.29859864

left   ...       0.00000000    -458.09684200
centre ...       0.13287033    -458.28112790
right  ...       0.26574066    -458.29859864
new    ...       0.21322115    -458.31178500

__s__    ...      -0.05251951

 ALPHA AFTER:   0.21322115003696843     
  Cycle:     20 Energy:      -458.311785  Gnorm:      0.608768  CPU:    0.100
 Line minimisation2
 ALPHA BEFORE:   0.21322115003696843     
  ** Opt : line minimisation
left   ...       0.00000000    -458.31178500
centre ...       0.05330529    -458.35588932
right  ...       0.10661058    -458.39575751

left   ...       0.00000000    -458.31178500
centre ...       0.05330529    -458.35588932
right  ...       0.10661058    -458.39575751
new    ...       0.58164012    -458.57707862

__s__    ...       0.47502954

left   ...       0.05330529    -458.35588932
centre ...       0.10661058    -458.39575751
right  ...       0.58164012    -458.57707862
new    ...       0.61946480    -458.57755392

__s__    ...       0.03782469

 ALPHA AFTER:   0.61946480361405132     
  Cycle:     21 Energy:      -458.577554  Gnorm:      0.832445  CPU:    0.106
 Perform trimming
 Line minimisation2
 ALPHA BEFORE:   0.61946480361405132     
  ** Opt : line minimisation
left   ...       0.00000000    -458.57755392
centre ...       0.15486620    -458.73474143
right  ...       0.30973240    -458.87875240

left   ...       0.00000000    -458.57755392
centre ...       0.15486620    -458.73474143
right  ...       0.30973240    -458.87875240
new    ...       1.30973240    -459.48812868

__s__    ...       1.00000000

left   ...       0.15486620    -458.73474143
centre ...       0.30973240    -458.87875240
right  ...       1.30973240    -459.48812868
new    ...       1.90752221    -459.59387656

__s__    ...       0.59778981

 ALPHA AFTER:    1.9075222114129611     
  Cycle:     22 Energy:      -459.593877  Gnorm:      1.572372  CPU:    0.110
 Perform trimming
 Line minimisation2
 ALPHA BEFORE:    1.9075222114129611     
  ** Opt : line minimisation
left   ...       0.00000000    -459.59387656
centre ...       0.47688055    -460.58330379
right  ...       0.95376111    -461.13538766

left   ...       0.00000000    -459.59387656
centre ...       0.47688055    -460.58330379
right  ...       0.95376111    -461.13538766
new    ...       1.31731478    -461.09718133

__s__    ...       0.36355368

 ALPHA AFTER:   0.95376110570648054     
  Cycle:     23 Energy:      -461.135388  Gnorm:      1.307255  CPU:    0.115
 Line minimisation2
 ALPHA BEFORE:   0.95376110570648054     
  ** Opt : line minimisation
left   ...       0.00000000    -461.13538766
centre ...       0.23844028    -461.98513041
right  ...       0.47688055    -462.34128718

left   ...       0.00000000    -461.13538766
centre ...       0.23844028    -461.98513041
right  ...       0.47688055    -462.34128718
new    ...       0.52971174    -462.34646952

__s__    ...       0.05283119

 ALPHA AFTER:   0.52971174045798375     
  Cycle:     24 Energy:      -462.346470  Gnorm:      1.345907  CPU:    0.120
 Line minimisation2
 ALPHA BEFORE:   0.52971174045798375     
  ** Opt : line minimisation
left   ...       0.00000000    -462.34646952
centre ...       0.13242794    -462.77354002
right  ...       0.26485587    -462.97737883

left   ...       0.00000000    -462.34646952
centre ...       0.13242794    -462.77354002
right  ...       0.26485587    -462.97737883
new    ...       0.31956538    -462.99386443

__s__    ...       0.05470951

 ALPHA AFTER:   0.31956538488265290     
  Cycle:     25 Energy:      -462.993864  Gnorm:      1.180695  CPU:    0.125
 Line minimisation2
 ALPHA BEFORE:   0.31956538488265290     
  ** Opt : line minimisation
left   ...       0.00000000    -462.99386443
centre ...       0.07989135    -463.21561363
right  ...       0.15978269    -463.37985282

left   ...       0.00000000    -462.99386443
centre ...       0.07989135    -463.21561363
right  ...       0.15978269    -463.37985282
new    ...       0.34799363    -463.54072469

__s__    ...       0.18821094

left   ...       0.07989135    -463.21561363
centre ...       0.15978269    -463.37985282
right  ...       0.34799363    -463.54072469
new    ...       0.34928818    -463.54072980

__s__    ...       0.00129455

 ALPHA AFTER:   0.34928818049016952     
  Cycle:     26 Energy:      -463.540730  Gnorm:      0.945111  CPU:    0.131
 Line minimisation2
 ALPHA BEFORE:   0.34928818049016952     
  ** Opt : line minimisation
left   ...       0.00000000    -463.54072980
centre ...       0.08732205    -463.69893732
right  ...       0.17464409    -463.82512786

left   ...       0.00000000    -463.54072980
centre ...       0.08732205    -463.69893732
right  ...       0.17464409    -463.82512786
new    ...       0.47515096    -464.02183421

__s__    ...       0.30050687

left   ...       0.08732205    -463.69893732
centre ...       0.17464409    -463.82512786
right  ...       0.47515096    -464.02183421
new    ...       0.48546339    -464.02224836

__s__    ...       0.01031244

 ALPHA AFTER:   0.48546339067231281     
  Cycle:     27 Energy:      -464.022248  Gnorm:      0.875254  CPU:    0.137
 Line minimisation2
 ALPHA BEFORE:   0.48546339067231281     
  ** Opt : line minimisation
left   ...       0.00000000    -464.02224836
centre ...       0.12136585    -464.20276389
right  ...       0.24273170    -464.31736175

left   ...       0.00000000    -464.02224836
centre ...       0.12136585    -464.20276389
right  ...       0.24273170    -464.31736175
new    ...       0.39304322    -464.36969467

__s__    ...       0.15031152

 ALPHA AFTER:   0.39304321986880425     
  Cycle:     28 Energy:      -464.369695  Gnorm:      0.629102  CPU:    0.141
 Line minimisation2
 ALPHA BEFORE:   0.39304321986880425     
  ** Opt : line minimisation
left   ...       0.00000000    -464.36969467
centre ...       0.09826080    -464.45498134
right  ...       0.19652161    -464.52755384

left   ...       0.00000000    -464.36969467
centre ...       0.09826080    -464.45498134
right  ...       0.19652161    -464.52755384
new    ...       0.70826372    -464.70941346

__s__    ...       0.51174211

left   ...       0.09826080    -464.45498134
centre ...       0.19652161    -464.52755384
right  ...       0.70826372    -464.70941346
new    ...       0.73524866    -464.70953476

__s__    ...       0.02698494

 ALPHA AFTER:   0.73524866104989728     
  Cycle:     29 Energy:      -464.709535  Gnorm:      0.870446  CPU:    0.147
 Line minimisation2
 ALPHA BEFORE:   0.73524866104989728     
  ** Opt : line minimisation
left   ...       0.00000000    -464.70953476
centre ...       0.18381217    -464.87157455
right  ...       0.36762433    -464.76020662

left   ...       0.00000000    -464.70953476
centre ...       0.18381217    -464.87157455
right  ...       0.36762433    -464.76020662
new    ...       0.20084553    -464.87187903

__s__    ...      -0.16677881

left   ...       0.18381217    -464.87157455
centre ...       0.20084553    -464.87187903
right  ...       0.36762433    -464.76020662
new    ...       0.19471858    -464.87203593

__s__    ...      -0.00612694

 ALPHA AFTER:   0.19471858128166936     
  Cycle:     30 Energy:      -464.872036  Gnorm:      0.433242  CPU:    0.153
  ** Hessian calculated **
 Line minimisation2
 ALPHA BEFORE:    1.0000000000000000     
  ** Opt : line minimisation
left   ...       0.00000000    -464.87203593
centre ...       0.25000000    -464.93362337
right  ...       0.50000000    -464.99559686

left   ...       0.00000000    -464.87203593
centre ...       0.25000000    -464.93362337
right  ...       0.50000000    -464.99559686
new    ...       1.00000000    -465.11754323

__s__    ...       0.50000000

left   ...       0.25000000    -464.93362337
centre ...       0.50000000    -464.99559686
right  ...       1.00000000    -465.11754323
new    ...       2.00000000    -465.35130060

__s__    ...       1.00000000

left   ...       0.50000000    -464.99559686
centre ...       1.00000000    -465.11754323
right  ...       2.00000000    -465.35130060
new    ...       3.00000000    -465.52975381

__s__    ...       1.00000000

left   ...       1.00000000    -465.11754323
centre ...       2.00000000    -465.35130060
right  ...       3.00000000    -465.52975381
new    ...       4.00000000    -465.56336926

__s__    ...       1.00000000

 ALPHA AFTER:    4.0000000000000000     
  Cycle:     31 Energy:      -465.563369  Gnorm:      0.697628  CPU:    0.164
  ** Hessian calculated **
 Line minimisation2
 ALPHA BEFORE:    1.0000000000000000     
  ** Opt : line minimisation
left   ...       0.00000000    -465.56336926
centre ...       0.25000000    -465.80446593
right  ...       0.50000000    -465.90559484

left   ...       0.00000000    -465.56336926
centre ...       0.25000000    -465.80446593
right  ...       0.50000000    -465.90559484
new    ...       0.55562893    -465.90887895

__s__    ...       0.05562893

 ALPHA AFTER:   0.55562892891232041     
  Cycle:     32 Energy:      -465.908879  Gnorm:      0.556561  CPU:    0.173
 Line minimisation2
 ALPHA BEFORE:   0.85957572756498646     
  ** Opt : line minimisation
left   ...       0.00000000    -465.90887895
centre ...       0.21489393    -465.99446388
right  ...       0.42978786    -466.06052805

left   ...       0.00000000    -465.90887895
centre ...       0.21489393    -465.99446388
right  ...       0.42978786    -466.06052805
new    ...       1.04960692    -466.13971966

__s__    ...       0.61981906

left   ...       0.21489393    -465.99446388
centre ...       0.42978786    -466.06052805
right  ...       1.04960692    -466.13971966
new    ...       1.03649960    -466.13970806

__s__    ...      -0.01310732

 ALPHA AFTER:    1.0496069209670438     
  Cycle:     33 Energy:      -466.139720  Gnorm:      0.556725  CPU:    0.181
 Line minimisation2
 ALPHA BEFORE:   0.69973794731136252     
  ** Opt : line minimisation
left   ...       0.00000000    -466.13971966
centre ...       0.17493449    -466.22998395
right  ...       0.34986897    -466.30864072

left   ...       0.00000000    -466.13971966
centre ...       0.17493449    -466.22998395
right  ...       0.34986897    -466.30864072
new    ...       1.34986897    -466.52953555

__s__    ...       1.00000000

left   ...       0.17493449    -466.22998395
centre ...       0.34986897    -466.30864072
right  ...       1.34986897    -466.52953555
new    ...       1.41718573    -466.53070003

__s__    ...       0.06731676

 ALPHA AFTER:    1.4171857288020384     
  Cycle:     34 Energy:      -466.530700  Gnorm:      0.763097  CPU:    0.189
 Line minimisation2
 ALPHA BEFORE:   0.94479048586802572     
  ** Opt : line minimisation
left   ...       0.00000000    -466.53070003
centre ...       0.23619762    -466.67987228
right  ...       0.47239524    -466.79711546

left   ...       0.00000000    -466.53070003
centre ...       0.23619762    -466.67987228
right  ...       0.47239524    -466.79711546
new    ...       1.22161107    -466.94852325

__s__    ...       0.74921583

left   ...       0.23619762    -466.67987228
centre ...       0.47239524    -466.79711546
right  ...       1.22161107    -466.94852325
new    ...       1.18534489    -466.94930281

__s__    ...      -0.03626618

 ALPHA AFTER:    1.1853448945609779     
  Cycle:     35 Energy:      -466.949303  Gnorm:      0.553756  CPU:    0.197
 Line minimisation2
 ALPHA BEFORE:    2.9221195555489059     
  ** Opt : line minimisation
left   ...       0.00000000    -466.94930281
centre ...       0.73052989    -467.19898829
right  ...       1.46105978    -467.23566133

left   ...       0.00000000    -466.94930281
centre ...       0.73052989    -467.19898829
right  ...       1.46105978    -467.23566133
new    ...       1.22156568    -467.24682317

__s__    ...      -0.23949410

 ALPHA AFTER:    1.2215656795214660     
  Cycle:     36 Energy:      -467.246823  Gnorm:      0.492847  CPU:    0.204
 Line minimisation2
 ALPHA BEFORE:    1.0112645554301842     
  ** Opt : line minimisation
left   ...       0.00000000    -467.24682317
centre ...       0.25281614    -467.33144386
right  ...       0.50563228    -467.39542381

left   ...       0.00000000    -467.24682317
centre ...       0.25281614    -467.33144386
right  ...       0.50563228    -467.39542381
new    ...       1.16287682    -467.45774188

__s__    ...       0.65724454

left   ...       0.25281614    -467.33144386
centre ...       0.50563228    -467.39542381
right  ...       1.16287682    -467.45774188
new    ...       1.10688753    -467.45831351

__s__    ...      -0.05598929

 ALPHA AFTER:    1.1068875284327140     
  Cycle:     37 Energy:      -467.458314  Gnorm:      0.396017  CPU:    0.212
 Line minimisation2
 ALPHA BEFORE:    1.1553166876801193     
  ** Opt : line minimisation
left   ...       0.00000000    -467.45831351
centre ...       0.28882917    -467.52954250
right  ...       0.57765834    -467.57903587

left   ...       0.00000000    -467.45831351
centre ...       0.28882917    -467.52954250
right  ...       0.57765834    -467.57903587
new    ...       1.09092584    -467.61004479

__s__    ...       0.51326749

left   ...       0.28882917    -467.52954250
centre ...       0.57765834    -467.57903587
right  ...       1.09092584    -467.61004479
new    ...       1.05268384    -467.61026522

__s__    ...      -0.03824200

 ALPHA AFTER:    1.0526838395632581     
  Cycle:     38 Energy:      -467.610265  Gnorm:      0.414055  CPU:    0.221
 Line minimisation2
 ALPHA BEFORE:    1.0514146192878198     
  ** Opt : line minimisation
left   ...       0.00000000    -467.61026522
centre ...       0.26285365    -467.69087023
right  ...       0.52570731    -467.75531074

left   ...       0.00000000    -467.61026522
centre ...       0.26285365    -467.69087023
right  ...       0.52570731    -467.75531074
new    ...       1.44215768    -467.84886963

__s__    ...       0.91645037

left   ...       0.26285365    -467.69087023
centre ...       0.52570731    -467.75531074
right  ...       1.44215768    -467.84886963
new    ...       1.40468469    -467.84912098

__s__    ...      -0.03747300

 ALPHA AFTER:    1.4046846874350358     
  Cycle:     39 Energy:      -467.849121  Gnorm:      0.498868  CPU:    0.229
 Line minimisation2
 ALPHA BEFORE:   0.93645645829002400     
  ** Opt : line minimisation
left   ...       0.00000000    -467.84912098
centre ...       0.23411411    -467.93358047
right  ...       0.46822823    -467.99351976

left   ...       0.00000000    -467.84912098
centre ...       0.23411411    -467.93358047
right  ...       0.46822823    -467.99351976
new    ...       0.92345984    -468.03363174

__s__    ...       0.45523161

left   ...       0.23411411    -467.93358047
centre ...       0.46822823    -467.99351976
right  ...       0.92345984    -468.03363174
new    ...       0.87671363    -468.03445228

__s__    ...      -0.04674621

 ALPHA AFTER:   0.87671362815805931     
  Cycle:     40 Energy:      -468.034452  Gnorm:      0.474691  CPU:    0.238
 Line minimisation2
 ALPHA BEFORE:    1.1065461185235890     
  ** Opt : line minimisation
left   ...       0.00000000    -468.03445228
centre ...       0.27663653    -468.12648953
right  ...       0.55327306    -468.20216306

left   ...       0.00000000    -468.03445228
centre ...       0.27663653    -468.12648953
right  ...       0.55327306    -468.20216306
new    ...       1.55327306    -468.33086646

__s__    ...       1.00000000

left   ...       0.27663653    -468.12648953
centre ...       0.55327306    -468.20216306
right  ...       1.55327306    -468.33086646
new    ...       1.62045615    -468.33096710

__s__    ...       0.06718309

 ALPHA AFTER:    1.6204561471311292     
  Cycle:     41 Energy:      -468.330967  Gnorm:      0.627178  CPU:    0.246
  ** Hessian calculated **
 Line minimisation2
 ALPHA BEFORE:    1.0000000000000000     
  ** Opt : line minimisation
left   ...       0.00000000    -468.33096710
centre ...       0.25000000    -468.38970092
right  ...       0.50000000    -468.44455343

left   ...       0.00000000    -468.33096710
centre ...       0.25000000    -468.38970092
right  ...       0.50000000    -468.44455343
new    ...       1.50000000    -468.61007880

__s__    ...       1.00000000

left   ...       0.25000000    -468.38970092
centre ...       0.50000000    -468.44455343
right  ...       1.50000000    -468.61007880
new    ...       2.50000000    -468.59943465

__s__    ...       1.00000000

 ALPHA AFTER:    1.5000000000000000     
  Cycle:     42 Energy:      -468.610079  Gnorm:      0.464552  CPU:    0.258
  ** Hessian calculated **
 Line minimisation2
 ALPHA BEFORE:    1.0000000000000000     
  ** Opt : line minimisation
left   ...       0.00000000    -468.61007880
centre ...       0.25000000    -468.68612453
right  ...       0.50000000    -468.71557716

left   ...       0.00000000    -468.61007880
centre ...       0.25000000    -468.68612453
right  ...       0.50000000    -468.71557716
new    ...       0.53303111    -468.71595903

__s__    ...       0.03303111

 ALPHA AFTER:   0.53303110645153540     
  Cycle:     43 Energy:      -468.715959  Gnorm:      0.328556  CPU:    0.268
 Line minimisation2
 ALPHA BEFORE:   0.73855985428862658     
  ** Opt : line minimisation
left   ...       0.00000000    -468.71595903
centre ...       0.18463996    -468.74170582
right  ...       0.36927993    -468.76169096

left   ...       0.00000000    -468.71595903
centre ...       0.18463996    -468.74170582
right  ...       0.36927993    -468.76169096
new    ...       0.91741069    -468.78978584

__s__    ...       0.54813076

left   ...       0.18463996    -468.74170582
centre ...       0.36927993    -468.76169096
right  ...       0.91741069    -468.78978584
new    ...       0.97290867    -468.79000640

__s__    ...       0.05549798

 ALPHA AFTER:   0.97290866837087675     
  Cycle:     44 Energy:      -468.790006  Gnorm:      0.282379  CPU:    0.277
 Line minimisation2
 ALPHA BEFORE:   0.90842604139250693     
  ** Opt : line minimisation
left   ...       0.00000000    -468.79000640
centre ...       0.22710651    -468.81510953
right  ...       0.45421302    -468.83194849

left   ...       0.00000000    -468.79000640
centre ...       0.22710651    -468.81510953
right  ...       0.45421302    -468.83194849
new    ...       0.80340827    -468.84143911

__s__    ...       0.34919525

 ALPHA AFTER:   0.80340826767008000     
  Cycle:     45 Energy:      -468.841439  Gnorm:      0.223644  CPU:    0.284
 Line minimisation2
 ALPHA BEFORE:    1.1661851364551361     
  ** Opt : line minimisation
left   ...       0.00000000    -468.84143911
centre ...       0.29154628    -468.85923620
right  ...       0.58309257    -468.87113006

left   ...       0.00000000    -468.84143911
centre ...       0.29154628    -468.85923620
right  ...       0.58309257    -468.87113006
new    ...       1.02472758    -468.87768827

__s__    ...       0.44163502

 ALPHA AFTER:    1.0247275833571443     
  Cycle:     46 Energy:      -468.877688  Gnorm:      0.169512  CPU:    0.291
 Line minimisation2
 ALPHA BEFORE:   0.99825890867724176     
  ** Opt : line minimisation
left   ...       0.00000000    -468.87768827
centre ...       0.24956473    -468.89057207
right  ...       0.49912945    -468.90117091

left   ...       0.00000000    -468.87768827
centre ...       0.24956473    -468.89057207
right  ...       0.49912945    -468.90117091
new    ...       1.49912945    -468.92111499

__s__    ...       1.00000000

left   ...       0.24956473    -468.89057207
centre ...       0.49912945    -468.90117091
right  ...       1.49912945    -468.92111499
new    ...       1.55231947    -468.92117585

__s__    ...       0.05319002

 ALPHA AFTER:    1.5523194710444690     
  Cycle:     47 Energy:      -468.921176  Gnorm:      0.168745  CPU:    0.300
 Line minimisation2
 ALPHA BEFORE:    1.0348796473629793     
  ** Opt : line minimisation
left   ...       0.00000000    -468.92117585
centre ...       0.25871991    -468.93840204
right  ...       0.51743982    -468.95214833

left   ...       0.00000000    -468.92117585
centre ...       0.25871991    -468.93840204
right  ...       0.51743982    -468.95214833
new    ...       1.41007704    -468.97475810

__s__    ...       0.89263722

left   ...       0.25871991    -468.93840204
centre ...       0.51743982    -468.95214833
right  ...       1.41007704    -468.97475810
new    ...       1.48821993    -468.97471182

__s__    ...       0.07814289

 ALPHA AFTER:    1.4100770399853793     
  Cycle:     48 Energy:      -468.974758  Gnorm:      0.176122  CPU:    0.309
 Line minimisation2
 ALPHA BEFORE:    1.6341826968769462     
  ** Opt : line minimisation
left   ...       0.00000000    -468.97475810
centre ...       0.40854567    -468.99548440
right  ...       0.81709135    -469.00942703

left   ...       0.00000000    -468.97475810
centre ...       0.40854567    -468.99548440
right  ...       0.81709135    -469.00942703
new    ...       1.45251240    -469.01679337

__s__    ...       0.63542106

 ALPHA AFTER:    1.4525124041001325     
  Cycle:     49 Energy:      -469.016793  Gnorm:      0.179369  CPU:    0.316
 Line minimisation2
 ALPHA BEFORE:    1.9720459128821555     
  ** Opt : line minimisation
left   ...       0.00000000    -469.01679337
centre ...       0.49301148    -469.03383006
right  ...       0.98602296    -469.03852836

left   ...       0.00000000    -469.01679337
centre ...       0.49301148    -469.03383006
right  ...       0.98602296    -469.03852836
new    ...       0.92724959    -469.03829418

__s__    ...      -0.05877336

 ALPHA AFTER:   0.98602295644107774     
  Cycle:     50 Energy:      -469.038528  Gnorm:      0.153837  CPU:    0.323
 Line minimisation2
 ALPHA BEFORE:    1.3999267969303806     
  ** Opt : line minimisation
left   ...       0.00000000    -469.03852836
centre ...       0.34998170    -469.04733933
right  ...       0.69996340    -469.05213537

left   ...       0.00000000    -469.03852836
centre ...       0.34998170    -469.04733933
right  ...       0.69996340    -469.05213537
new    ...       0.94304585    -469.05325165

__s__    ...       0.24308245

 ALPHA AFTER:   0.94304585127058582     
  Cycle:     51 Energy:      -469.053252  Gnorm:      0.127438  CPU:    0.330
 Line minimisation2
 ALPHA BEFORE:   0.78376781203783819     
  ** Opt : line minimisation
left   ...       0.00000000    -469.05325165
centre ...       0.19594195    -469.05778110
right  ...       0.39188391    -469.06154630

left   ...       0.00000000    -469.05325165
centre ...       0.19594195    -469.05778110
right  ...       0.39188391    -469.06154630
new    ...       1.25925435    -469.06948977

__s__    ...       0.86737045

left   ...       0.19594195    -469.05778110
centre ...       0.39188391    -469.06154630
right  ...       1.25925435    -469.06948977
new    ...       1.30966652    -469.06953014

__s__    ...       0.05041217

 ALPHA AFTER:    1.3096665214535663     
  Cycle:     52 Energy:      -469.069530  Gnorm:      0.114069  CPU:    0.339
  ** Hessian calculated **
 Line minimisation2
 ALPHA BEFORE:    1.0000000000000000     
  ** Opt : line minimisation
left   ...       0.00000000    -469.06953014
centre ...       0.25000000    -469.07492974
right  ...       0.50000000    -469.07779280

left   ...       0.00000000    -469.06953014
centre ...       0.25000000    -469.07492974
right  ...       0.50000000    -469.07779280
new    ...       0.65717921    -469.07818459

__s__    ...       0.15717921

 ALPHA AFTER:   0.65717920813966502     
  Cycle:     53 Energy:      -469.078185  Gnorm:      0.097459  CPU:    0.349
 Line minimisation2
 ALPHA BEFORE:   0.71862879633737919     
  ** Opt : line minimisation
left   ...       0.00000000    -469.07818459
centre ...       0.17965720    -469.08060859
right  ...       0.35931440    -469.08279446

left   ...       0.00000000    -469.07818459
centre ...       0.17965720    -469.08060859
right  ...       0.35931440    -469.08279446
new    ...       1.35931440    -469.08737218

__s__    ...       1.00000000

left   ...       0.17965720    -469.08060859
centre ...       0.35931440    -469.08279446
right  ...       1.35931440    -469.08737218
new    ...       1.21509083    -469.08747123

__s__    ...      -0.14422357

 ALPHA AFTER:    1.2150908263786961     
  Cycle:     54 Energy:      -469.087471  Gnorm:      0.104892  CPU:    0.358
 Line minimisation2
 ALPHA BEFORE:   0.94310063192947591     
  ** Opt : line minimisation
left   ...       0.00000000    -469.08747123
centre ...       0.23577516    -469.09120197
right  ...       0.47155032    -469.09425066

left   ...       0.00000000    -469.08747123
centre ...       0.23577516    -469.09120197
right  ...       0.47155032    -469.09425066
new    ...       1.40754663    -469.09954125

__s__    ...       0.93599631

left   ...       0.23577516    -469.09120197
centre ...       0.47155032    -469.09425066
right  ...       1.40754663    -469.09954125
new    ...       1.39456074    -469.09953444

__s__    ...      -0.01298589

 ALPHA AFTER:    1.4075466288619465     
  Cycle:     55 Energy:      -469.099541  Gnorm:      0.119334  CPU:    0.367
 Line minimisation2
 ALPHA BEFORE:   0.93836441924129754     
  ** Opt : line minimisation
left   ...       0.00000000    -469.09954125
centre ...       0.23459110    -469.10473916
right  ...       0.46918221    -469.10911010

left   ...       0.00000000    -469.09954125
centre ...       0.23459110    -469.10473916
right  ...       0.46918221    -469.10911010
new    ...       1.46918221    -469.11831322

__s__    ...       1.00000000

left   ...       0.23459110    -469.10473916
centre ...       0.46918221    -469.10911010
right  ...       1.46918221    -469.11831322
new    ...       1.57168963    -469.11842302

__s__    ...       0.10250742

 ALPHA AFTER:    1.5716896260741120     
  Cycle:     56 Energy:      -469.118423  Gnorm:      0.120818  CPU:    0.376
 Line minimisation2
 ALPHA BEFORE:    1.4869401142003820     
  ** Opt : line minimisation
left   ...       0.00000000    -469.11842302
centre ...       0.37173503    -469.12772669
right  ...       0.74347006    -469.13466608

left   ...       0.00000000    -469.11842302
centre ...       0.37173503    -469.12772669
right  ...       0.74347006    -469.13466608
new    ...       1.64868035    -469.14070782

__s__    ...       0.90521030

left   ...       0.37173503    -469.12772669
centre ...       0.74347006    -469.13466608
right  ...       1.64868035    -469.14070782
new    ...       1.55139666    -469.14084044

__s__    ...      -0.09728369

 ALPHA AFTER:    1.5513966600542386     
  Cycle:     57 Energy:      -469.140840  Gnorm:      0.154341  CPU:    0.385
 Line minimisation2
 ALPHA BEFORE:    1.0342644400361591     
  ** Opt : line minimisation
left   ...       0.00000000    -469.14084044
centre ...       0.25856611    -469.14831097
right  ...       0.51713222    -469.15426262

left   ...       0.00000000    -469.14084044
centre ...       0.25856611    -469.14831097
right  ...       0.51713222    -469.15426262
new    ...       1.40103458    -469.16354935

__s__    ...       0.88390236

left   ...       0.25856611    -469.14831097
centre ...       0.51713222    -469.15426262
right  ...       1.40103458    -469.16354935
new    ...       1.43877879    -469.16354163

__s__    ...       0.03774421

 ALPHA AFTER:    1.4010345757404650     
  Cycle:     58 Energy:      -469.163549  Gnorm:      0.158943  CPU:    0.394
 Line minimisation2
 ALPHA BEFORE:   0.93402305049364331     
  ** Opt : line minimisation
left   ...       0.00000000    -469.16354935
centre ...       0.23350576    -469.17114209
right  ...       0.46701153    -469.17814748

left   ...       0.00000000    -469.16354935
centre ...       0.23350576    -469.17114209
right  ...       0.46701153    -469.17814748
new    ...       1.46701153    -469.19858894

__s__    ...       1.00000000

left   ...       0.23350576    -469.17114209
centre ...       0.46701153    -469.17814748
right  ...       1.46701153    -469.19858894
new    ...       2.28583739    -469.20539196

__s__    ...       0.81882587

 ALPHA AFTER:    2.2858373902723783     
  Cycle:     59 Energy:      -469.205392  Gnorm:      0.282909  CPU:    0.403
 Line minimisation2
 ALPHA BEFORE:    1.5238915935149189     
  ** Opt : line minimisation
left   ...       0.00000000    -469.20539196
centre ...       0.38097290    -469.22421431
right  ...       0.76194580    -469.24160473

left   ...       0.00000000    -469.20539196
centre ...       0.38097290    -469.22421431
right  ...       0.76194580    -469.24160473
new    ...       1.76194580    -469.28168603

__s__    ...       1.00000000

left   ...       0.38097290    -469.22421431
centre ...       0.76194580    -469.24160473
right  ...       1.76194580    -469.28168603
new    ...       2.76194580    -469.30576022

__s__    ...       1.00000000

left   ...       0.76194580    -469.24160473
centre ...       1.76194580    -469.28168603
right  ...       2.76194580    -469.30576022
new    ...       3.76194580    -469.30524914

__s__    ...       1.00000000

 ALPHA AFTER:    2.7619457967574594     
  Cycle:     60 Energy:      -469.305760  Gnorm:      0.337948  CPU:    0.414
 Line minimisation2
 ALPHA BEFORE:    1.8412971978383064     
  ** Opt : line minimisation
left   ...       0.00000000    -469.30576022
centre ...       0.46032430    -469.33815503
right  ...       0.92064860    -469.36214194

left   ...       0.00000000    -469.30576022
centre ...       0.46032430    -469.33815503
right  ...       0.92064860    -469.36214194
new    ...       1.92064860    -469.36720128

__s__    ...       1.00000000

 ALPHA AFTER:    1.9206485989191533     
  Cycle:     61 Energy:      -469.367201  Gnorm:      0.529657  CPU:    0.422
 Line minimisation2
 ALPHA BEFORE:    2.9535378139629378     
  ** Opt : line minimisation
left   ...       0.00000000    -469.36720128
centre ...       0.73838445    -469.57161067
right  ...       1.47676891    -469.66640676

left   ...       0.00000000    -469.36720128
centre ...       0.73838445    -469.57161067
right  ...       1.47676891    -469.66640676
new    ...       1.74614841    -469.67258729

__s__    ...       0.26937950

 ALPHA AFTER:    1.7461484061277317     
  Cycle:     62 Energy:      -469.672587  Gnorm:      0.775140  CPU:    0.429
  ** Hessian calculated **
 Line minimisation2
 ALPHA BEFORE:    1.0000000000000000     
  ** Opt : line minimisation
left   ...       0.00000000    -469.67258729
centre ...       0.25000000    -469.82861352
right  ...       0.50000000    -469.88968318

left   ...       0.00000000    -469.67258729
centre ...       0.25000000    -469.82861352
right  ...       0.50000000    -469.88968318
new    ...       0.53578310    -469.89043558

__s__    ...       0.03578310

 ALPHA AFTER:   0.53578310234839666     
  Cycle:     63 Energy:      -469.890436  Gnorm:      0.419455  CPU:    0.440
 Line minimisation2
 ALPHA BEFORE:   0.66051600308742853     
  ** Opt : line minimisation
left   ...       0.00000000    -469.89043558
centre ...       0.16512900    -469.93549886
right  ...       0.33025800    -469.97364709

left   ...       0.00000000    -469.89043558
centre ...       0.16512900    -469.93549886
right  ...       0.33025800    -469.97364709
new    ...       1.15865982    -470.06785041

__s__    ...       0.82840182

left   ...       0.16512900    -469.93549886
centre ...       0.33025800    -469.97364709
right  ...       1.15865982    -470.06785041
new    ...       1.22603442    -470.06830727

__s__    ...       0.06737460

 ALPHA AFTER:    1.2260344190551686     
  Cycle:     64 Energy:      -470.068307  Gnorm:      0.401892  CPU:    0.449
 Line minimisation2
 ALPHA BEFORE:   0.96330926928394278     
  ** Opt : line minimisation
left   ...       0.00000000    -470.06830727
centre ...       0.24082732    -470.12200390
right  ...       0.48165463    -470.16173234

left   ...       0.00000000    -470.06830727
centre ...       0.24082732    -470.12200390
right  ...       0.48165463    -470.16173234
new    ...       1.04620388    -470.19993843

__s__    ...       0.56454925

left   ...       0.24082732    -470.12200390
centre ...       0.48165463    -470.16173234
right  ...       1.04620388    -470.19993843
new    ...       1.04403803    -470.19994040

__s__    ...      -0.00216586

 ALPHA AFTER:    1.0440380268128353     
  Cycle:     65 Energy:      -470.199940  Gnorm:      0.368757  CPU:    0.458
 Line minimisation2
 ALPHA BEFORE:   0.88897439651540222     
  ** Opt : line minimisation
left   ...       0.00000000    -470.19994040
centre ...       0.22224360    -470.25177541
right  ...       0.44448720    -470.29392696

left   ...       0.00000000    -470.19994040
centre ...       0.22224360    -470.25177541
right  ...       0.44448720    -470.29392696
new    ...       1.30077807    -470.36297672

__s__    ...       0.85629087

left   ...       0.22224360    -470.25177541
centre ...       0.44448720    -470.29392696
right  ...       1.30077807    -470.36297672
new    ...       1.27148930    -470.36313549

__s__    ...      -0.02928877

 ALPHA AFTER:    1.2714892963177995     
  Cycle:     66 Energy:      -470.363135  Gnorm:      0.387934  CPU:    0.468
 Line minimisation2
 ALPHA BEFORE:    1.1026302246980351     
  ** Opt : line minimisation
left   ...       0.00000000    -470.36313549
centre ...       0.27565756    -470.42181201
right  ...       0.55131511    -470.46053896

left   ...       0.00000000    -470.36313549
centre ...       0.27565756    -470.42181201
right  ...       0.55131511    -470.46053896
new    ...       0.94860457    -470.47910838

__s__    ...       0.39728946

 ALPHA AFTER:   0.94860456809199356     
  Cycle:     67 Energy:      -470.479108  Gnorm:      0.299156  CPU:    0.475
 Line minimisation2
 ALPHA BEFORE:    1.7631121270002716     
  ** Opt : line minimisation
left   ...       0.00000000    -470.47910838
centre ...       0.44077803    -470.53771278
right  ...       0.88155606    -470.56264710

left   ...       0.00000000    -470.47910838
centre ...       0.44077803    -470.53771278
right  ...       0.88155606    -470.56264710
new    ...       0.98758459    -470.56343989

__s__    ...       0.10602853

 ALPHA AFTER:   0.98758458923400039     
  Cycle:     68 Energy:      -470.563440  Gnorm:      0.244075  CPU:    0.482
 Line minimisation2
 ALPHA BEFORE:    1.3292211761058792     
  ** Opt : line minimisation
left   ...       0.00000000    -470.56343989
centre ...       0.33230529    -470.58904990
right  ...       0.66461059    -470.60081458

left   ...       0.00000000    -470.56343989
centre ...       0.33230529    -470.58904990
right  ...       0.66461059    -470.60081458
new    ...       0.78082475    -470.60178249

__s__    ...       0.11621416

 ALPHA AFTER:   0.78082475281103425     
  Cycle:     69 Energy:      -470.601782  Gnorm:      0.192608  CPU:    0.490
 Line minimisation2
 ALPHA BEFORE:   0.91682548692701260     
  ** Opt : line minimisation
left   ...       0.00000000    -470.60178249
centre ...       0.22920637    -470.61243638
right  ...       0.45841274    -470.62100162

left   ...       0.00000000    -470.60178249
centre ...       0.22920637    -470.61243638
right  ...       0.45841274    -470.62100162
new    ...       1.28374905    -470.63460059

__s__    ...       0.82533631

left   ...       0.22920637    -470.61243638
centre ...       0.45841274    -470.62100162
right  ...       1.28374905    -470.63460059
new    ...       1.28691993    -470.63460180

__s__    ...       0.00317088

 ALPHA AFTER:    1.2869199314481383     
  Cycle:     70 Energy:      -470.634602  Gnorm:      0.178621  CPU:    0.499
 Line minimisation2
 ALPHA BEFORE:   0.85794662096542562     
  ** Opt : line minimisation
left   ...       0.00000000    -470.63460180
centre ...       0.21448666    -470.64618739
right  ...       0.42897331    -470.65548091

left   ...       0.00000000    -470.63460180
centre ...       0.21448666    -470.64618739
right  ...       0.42897331    -470.65548091
new    ...       1.19139809    -470.67216163

__s__    ...       0.76242478

left   ...       0.21448666    -470.64618739
centre ...       0.42897331    -470.65548091
right  ...       1.19139809    -470.67216163
new    ...       1.30838421    -470.67227501

__s__    ...       0.11698612

 ALPHA AFTER:    1.3083842147789713     
  Cycle:     71 Energy:      -470.672275  Gnorm:      0.166728  CPU:    0.508
 Line minimisation2
 ALPHA BEFORE:    1.7810894620390614     
  ** Opt : line minimisation
left   ...       0.00000000    -470.67227501
centre ...       0.44527237    -470.69468803
right  ...       0.89054473    -470.70961566

left   ...       0.00000000    -470.67227501
centre ...       0.44527237    -470.69468803
right  ...       0.89054473    -470.70961566
new    ...       1.55588654    -470.71814358

__s__    ...       0.66534181

 ALPHA AFTER:    1.5558865425313693     
  Cycle:     72 Energy:      -470.718144  Gnorm:      0.175636  CPU:    0.516
  ** Hessian calculated **
 Line minimisation2
 ALPHA BEFORE:    1.0000000000000000     
  ** Opt : line minimisation
left   ...       0.00000000    -470.71814358
centre ...       0.25000000    -470.73356931
right  ...       0.50000000    -470.74848628

left   ...       0.00000000    -470.71814358
centre ...       0.25000000    -470.73356931
right  ...       0.50000000    -470.74848628
new    ...       1.50000000    -470.79856638

__s__    ...       1.00000000

left   ...       0.25000000    -470.73356931
centre ...       0.50000000    -470.74848628
right  ...       1.50000000    -470.79856638
new    ...       2.50000000    -470.83292512

__s__    ...       1.00000000

left   ...       0.50000000    -470.74848628
centre ...       1.50000000    -470.79856638
right  ...       2.50000000    -470.83292512
new    ...       3.50000000    -470.84857838

__s__    ...       1.00000000

 ALPHA AFTER:    3.5000000000000000     
  Cycle:     73 Energy:      -470.848578  Gnorm:      0.270917  CPU:    0.530
 Line minimisation2
 ALPHA BEFORE:    2.3333333333333330     
  ** Opt : line minimisation
left   ...       0.00000000    -470.84857838
centre ...       0.58333333    -470.87675461
right  ...       1.16666667    -470.89759454

left   ...       0.00000000    -470.84857838
centre ...       0.58333333    -470.87675461
right  ...       1.16666667    -470.89759454
new    ...       2.16666667    -470.91193753

__s__    ...       1.00000000

left   ...       0.58333333    -470.87675461
centre ...       1.16666667    -470.89759454
right  ...       2.16666667    -470.91193753
new    ...       2.19769916    -470.91190784

__s__    ...       0.03103250

 ALPHA AFTER:    2.1666666666666665     
  Cycle:     74 Energy:      -470.911938  Gnorm:      0.271991  CPU:    0.539
  ** Hessian calculated **
 Line minimisation2
 ALPHA BEFORE:    1.0000000000000000     
  ** Opt : line minimisation
left   ...       0.00000000    -470.91193753
centre ...       0.25000000    -470.93168114
right  ...       0.50000000    -470.94934807

left   ...       0.00000000    -470.91193753
centre ...       0.25000000    -470.93168114
right  ...       0.50000000    -470.94934807
new    ...       1.50000000    -470.99468736

__s__    ...       1.00000000

left   ...       0.25000000    -470.93168114
centre ...       0.50000000    -470.94934807
right  ...       1.50000000    -470.99468736
new    ...       2.11878504    -470.99632670

__s__    ...       0.61878504

 ALPHA AFTER:    2.1187850382248343     
  Cycle:     75 Energy:      -470.996327  Gnorm:      0.120561  CPU:    0.551
 Line minimisation2
 ALPHA BEFORE:    3.3094759725730585     
  ** Opt : line minimisation
left   ...       0.00000000    -470.99632670
centre ...       0.82736899    -470.99301520
right  ...      -0.82736899    -470.86268889

left   ...      -0.82736899    -470.86268889
centre ...       0.00000000    -470.99632670
right  ...       0.82736899    -470.99301520
new    ...       0.17263101    -471.00572059

__s__    ...       1.00000000

left   ...       0.00000000    -470.99632670
centre ...       0.17263101    -471.00572059
right  ...       0.82736899    -470.99301520
new    ...       0.39125538    -471.00953385

__s__    ...       0.21862438

left   ...       0.17263101    -471.00572059
centre ...       0.39125538    -471.00953385
right  ...       0.82736899    -470.99301520
new    ...       0.38516259    -471.00952945

__s__    ...      -0.00609279

 ALPHA AFTER:   0.39125538334177773     
  Cycle:     76 Energy:      -471.009534  Gnorm:      0.061102  CPU:    0.562
 Line minimisation2
 ALPHA BEFORE:   0.75785181862101314     
  ** Opt : line minimisation
left   ...       0.00000000    -471.00953385
centre ...       0.18946295    -471.01209126
right  ...       0.37892591    -471.01369911

left   ...       0.00000000    -471.00953385
centre ...       0.18946295    -471.01209126
right  ...       0.37892591    -471.01369911
new    ...       0.60500380    -471.01416712

__s__    ...       0.22607789

 ALPHA AFTER:   0.60500379510440738     
  Cycle:     77 Energy:      -471.014167  Gnorm:      0.035655  CPU:    0.570
 Line minimisation2
 ALPHA BEFORE:   0.40333586340293826     
  ** Opt : line minimisation
left   ...       0.00000000    -471.01416712
centre ...       0.10083397    -471.01466472
right  ...       0.20166793    -471.01492458

left   ...       0.00000000    -471.01416712
centre ...       0.10083397    -471.01466472
right  ...       0.20166793    -471.01492458
new    ...       0.26146319    -471.01504892

__s__    ...       0.05979526

 ALPHA AFTER:   0.26146318879586827     
  Cycle:     78 Energy:      -471.015049  Gnorm:      0.037151  CPU:    0.577
 Line minimisation2
 ALPHA BEFORE:   0.17430879253057885     
  ** Opt : line minimisation
left   ...       0.00000000    -471.01504892
centre ...       0.04357720    -471.01530604
right  ...       0.08715440    -471.01554800

left   ...       0.00000000    -471.01504892
centre ...       0.04357720    -471.01530604
right  ...       0.08715440    -471.01554800
new    ...       0.76105165    -471.01763331

__s__    ...       0.67389725

left   ...       0.04357720    -471.01530604
centre ...       0.08715440    -471.01554800
right  ...       0.76105165    -471.01763331
new    ...       0.87568653    -471.01764522

__s__    ...       0.11463489

 ALPHA AFTER:   0.87568653075470737     
  Cycle:     79 Energy:      -471.017645  Gnorm:      0.026882  CPU:    0.587
 Line minimisation2
 ALPHA BEFORE:    5.4636771390740533     
  ** Opt : line minimisation
left   ...       0.00000000    -471.01764522
centre ...       1.00000000    -471.01860084
right  ...       2.00000000    -471.01744446

left   ...       0.00000000    -471.01764522
centre ...       1.00000000    -471.01860084
right  ...       2.00000000    -471.01744446
new    ...       1.00000000    -471.01860084

__s__    ...      -1.00000000

 ALPHA AFTER:    1.0000000000000000     
  Cycle:     80 Energy:      -471.018601  Gnorm:      0.012734  CPU:    0.595
 Line minimisation2
 ALPHA BEFORE:    1.7899078185720187     
  ** Opt : line minimisation
left   ...       0.00000000    -471.01860084
centre ...       0.44747695    -471.01855593
right  ...      -0.44747695    -471.01834741

left   ...      -0.44747695    -471.01834741
centre ...       0.00000000    -471.01860084
right  ...       0.44747695    -471.01855593
new    ...       0.15638701    -471.01866483

__s__    ...       0.60386396

left   ...       0.00000000    -471.01860084
centre ...       0.15638701    -471.01866483
right  ...       0.44747695    -471.01855593
new    ...       0.19507716    -471.01867870

__s__    ...       0.03869015

 ALPHA AFTER:   0.19507715530308389     
  Cycle:     81 Energy:      -471.018679  Gnorm:      0.010842  CPU:    0.604
 Line minimisation2
 ALPHA BEFORE:   0.13062370222965386     
  ** Opt : line minimisation
left   ...       0.00000000    -471.01867870
centre ...       0.03265593    -471.01869091
right  ...       0.06531185    -471.01870263

left   ...       0.00000000    -471.01867870
centre ...       0.03265593    -471.01869091
right  ...       0.06531185    -471.01870263
new    ...       0.84270888    -471.01846994

__s__    ...       0.77739703

left   ...       0.03265593    -471.01869091
centre ...       0.06531185    -471.01870263
right  ...       0.84270888    -471.01846994
new    ...       0.26983565    -471.01874585

__s__    ...      -0.57287323

left   ...       0.06531185    -471.01870263
centre ...       0.26983565    -471.01874585
right  ...       0.84270888    -471.01846994
new    ...       0.28611764    -471.01875001

__s__    ...       0.01628200

 ALPHA AFTER:   0.28611764248263477     
  Cycle:     82 Energy:      -471.018750  Gnorm:      0.008208  CPU:    0.616
 Line minimisation2
 ALPHA BEFORE:   0.36050563559262050     
  ** Opt : line minimisation
left   ...       0.00000000    -471.01875001
centre ...       0.09012641    -471.01876958
right  ...       0.18025282    -471.01878686

left   ...       0.00000000    -471.01875001
centre ...       0.09012641    -471.01876958
right  ...       0.18025282    -471.01878686
new    ...       0.81483681    -471.01849366

__s__    ...       0.63458399

left   ...       0.09012641    -471.01876958
centre ...       0.18025282    -471.01878686
right  ...       0.81483681    -471.01849366
new    ...       0.24146128    -471.01879729

__s__    ...      -0.57337554

left   ...       0.18025282    -471.01878686
centre ...       0.24146128    -471.01879729
right  ...       0.81483681    -471.01849366
new    ...       0.28809428    -471.01880453

__s__    ...       0.04663300

 ALPHA AFTER:   0.28809427670796967     
  Cycle:     83 Energy:      -471.018805  Gnorm:      0.005710  CPU:    0.627
 Line minimisation2
 ALPHA BEFORE:   0.52895196654116350     
  ** Opt : line minimisation
left   ...       0.00000000    -471.01880453
centre ...       0.13223799    -471.01881633
right  ...       0.26447598    -471.01882635

left   ...       0.00000000    -471.01880453
centre ...       0.13223799    -471.01881633
right  ...       0.26447598    -471.01882635
new    ...       0.93866278    -471.01849971

__s__    ...       0.67418680

left   ...       0.13223799    -471.01881633
centre ...       0.26447598    -471.01882635
right  ...       0.93866278    -471.01849971
new    ...       0.25286652    -471.01882554

__s__    ...      -0.68579626

left   ...       0.25286652    -471.01882554
centre ...       0.26447598    -471.01882635
right  ...       0.93866278    -471.01849971
new    ...       0.30172405    -471.01882884

__s__    ...       0.04885753

 ALPHA AFTER:   0.30172405006988989     
  Cycle:     84 Energy:      -471.018829  Gnorm:      0.004168  CPU:    0.639
  ** Hessian calculated **
 Line minimisation2
 ALPHA BEFORE:    1.0000000000000000     
  ** Opt : line minimisation
left   ...       0.00000000    -471.01882884
centre ...       0.25000000    -471.01866606
right  ...      -0.25000000    -471.01881311

left   ...      -0.25000000    -471.01881311
centre ...       0.00000000    -471.01882884
right  ...       0.25000000    -471.01866606
new    ...      -0.10296829    -471.01882280

__s__    ...       0.14703171

left   ...      -0.10296829    -471.01882280
centre ...       0.00000000    -471.01882884
right  ...       0.25000000    -471.01866606
new    ...      -0.03689321    -471.01882675

__s__    ...       0.06607509

left   ...      -0.03689321    -471.01882675
centre ...       0.00000000    -471.01882884
right  ...       0.25000000    -471.01866606
new    ...      -0.00694104    -471.01882846

__s__    ...       0.02995216

left   ...      -0.00694104    -471.01882846
centre ...       0.00000000    -471.01882884
right  ...       0.25000000    -471.01866606
new    ...       0.00668965    -471.01882922

__s__    ...       0.01363069

 ALPHA AFTER:    6.6896482723360490E-003
  Cycle:     85 Energy:      -471.018829  Gnorm:      0.004142  CPU:    0.655
 Line minimisation2
 ALPHA BEFORE:    8.3802191580704798E-003
  ** Opt : line minimisation
left   ...       0.00000000    -471.01882922
centre ...       0.00209505    -471.01882931
right  ...       0.00419011    -471.01882941

left   ...       0.00000000    -471.01882922
centre ...       0.00209505    -471.01882931
right  ...       0.00419011    -471.01882941
new    ...       1.00419011    -471.01868134

__s__    ...       1.00000000

left   ...       0.00209505    -471.01882931
centre ...       0.00419011    -471.01882941
right  ...       1.00419011    -471.01868134
new    ...       0.12073537    -471.01865945

__s__    ...      -0.88345474

left   ...       0.00209505    -471.01882931
centre ...       0.00419011    -471.01882941
right  ...       0.12073537    -471.01865945
new    ...       0.00493386    -471.01882944

__s__    ...      -0.11580152

 ALPHA AFTER:    4.9338578437342767E-003
  Cycle:     86 Energy:      -471.018829  Gnorm:      0.004125  CPU:    0.667
 Line minimisation2
 ALPHA BEFORE:    5.2902125316318192E-003
  ** Opt : line minimisation
left   ...       0.00000000    -471.01882944
centre ...       0.00132255    -471.01882950
right  ...       0.00264511    -471.01882955

left   ...       0.00000000    -471.01882944
centre ...       0.00132255    -471.01882950
right  ...       0.00264511    -471.01882955
new    ...       1.00264511    -471.01868087

__s__    ...       1.00000000

left   ...       0.00132255    -471.01882950
centre ...       0.00264511    -471.01882955
right  ...       1.00264511    -471.01868087
new    ...       0.11315219    -471.01865905

__s__    ...      -0.88949292

left   ...       0.00132255    -471.01882950
centre ...       0.00264511    -471.01882955
right  ...       0.11315219    -471.01865905
new    ...       0.00348062    -471.01882959

__s__    ...      -0.10967157

 ALPHA AFTER:    3.4806176971325098E-003
  Cycle:     87 Energy:      -471.018830  Gnorm:      0.004114  CPU:    0.678
 Line minimisation2
 ALPHA BEFORE:    3.5850177462228116E-003
  ** Opt : line minimisation
left   ...       0.00000000    -471.01882959
centre ...       0.00089625    -471.01882962
right  ...       0.00179251    -471.01882966

left   ...       0.00000000    -471.01882959
centre ...       0.00089625    -471.01882962
right  ...       0.00179251    -471.01882966
new    ...       1.00179251    -471.01868063

__s__    ...       1.00000000

left   ...       0.00089625    -471.01882962
centre ...       0.00179251    -471.01882966
right  ...       1.00179251    -471.01868063
new    ...       0.10970781    -471.01865894

__s__    ...      -0.89208470

left   ...       0.00089625    -471.01882962
centre ...       0.00179251    -471.01882966
right  ...       0.10970781    -471.01865894
new    ...       0.00272489    -471.01882970

__s__    ...      -0.10698291

 ALPHA AFTER:    2.7248917111041687E-003
  Cycle:     88 Energy:      -471.018830  Gnorm:      0.004106  CPU:    0.690
 Line minimisation2
 ALPHA BEFORE:    2.7718882727565592E-003
  ** Opt : line minimisation
left   ...       0.00000000    -471.01882970
centre ...       0.00069297    -471.01882973
right  ...       0.00138594    -471.01882976

left   ...       0.00000000    -471.01882970
centre ...       0.00069297    -471.01882973
right  ...       0.00138594    -471.01882976
new    ...       1.00138594    -471.01868050

__s__    ...       1.00000000

left   ...       0.00069297    -471.01882973
centre ...       0.00138594    -471.01882976
right  ...       1.00138594    -471.01868050
new    ...       0.10774060    -471.01865890

__s__    ...      -0.89364535

left   ...       0.00069297    -471.01882973
centre ...       0.00138594    -471.01882976
right  ...       0.10774060    -471.01865890
new    ...       0.00235430    -471.01882979

__s__    ...      -0.10538630

 ALPHA AFTER:    2.3542987915615710E-003
  Cycle:     89 Energy:      -471.018830  Gnorm:      0.004099  CPU:    0.702
 Line minimisation2
 ALPHA BEFORE:    2.3835979839866130E-003
  ** Opt : line minimisation
left   ...       0.00000000    -471.01882979
centre ...       0.00059590    -471.01882982
right  ...       0.00119180    -471.01882984

left   ...       0.00000000    -471.01882979
centre ...       0.00059590    -471.01882982
right  ...       0.00119180    -471.01882984
new    ...       1.00119180    -471.01868040

__s__    ...       1.00000000

left   ...       0.00059590    -471.01882982
centre ...       0.00119180    -471.01882984
right  ...       1.00119180    -471.01868040
new    ...       0.10636914    -471.01865889

__s__    ...      -0.89482266

left   ...       0.00059590    -471.01882982
centre ...       0.00119180    -471.01882984
right  ...       0.10636914    -471.01865889
new    ...       0.00216171    -471.01882988

__s__    ...      -0.10420743

 ALPHA AFTER:    2.1617087545156705E-003
  Cycle:     90 Energy:      -471.018830  Gnorm:      0.004093  CPU:    0.713
 Line minimisation2
 ALPHA BEFORE:    2.1838004010323714E-003
  ** Opt : line minimisation
left   ...       0.00000000    -471.01882988
centre ...       0.00054595    -471.01882990
right  ...       0.00109190    -471.01882992

left   ...       0.00000000    -471.01882988
centre ...       0.00054595    -471.01882990
right  ...       0.00109190    -471.01882992
new    ...       1.00109190    -471.01868032

__s__    ...       1.00000000

left   ...       0.00054595    -471.01882990
centre ...       0.00109190    -471.01882992
right  ...       1.00109190    -471.01868032
new    ...       0.10527439    -471.01865889

__s__    ...      -0.89581751

left   ...       0.00054595    -471.01882990
centre ...       0.00109190    -471.01882992
right  ...       0.10527439    -471.01865889
new    ...       0.00204862    -471.01882996

__s__    ...      -0.10322577

 ALPHA AFTER:    2.0486245077564608E-003
  Cycle:     91 Energy:      -471.018830  Gnorm:      0.004087  CPU:    0.725
 Line minimisation2
 ALPHA BEFORE:    2.0669870397176508E-003
  ** Opt : line minimisation
left   ...       0.00000000    -471.01882996
centre ...       0.00051675    -471.01882998
right  ...       0.00103349    -471.01883000

left   ...       0.00000000    -471.01882996
centre ...       0.00051675    -471.01882998
right  ...       0.00103349    -471.01883000
new    ...       1.00103349    -471.01868026

__s__    ...       1.00000000

left   ...       0.00051675    -471.01882998
centre ...       0.00103349    -471.01883000
right  ...       1.00103349    -471.01868026
new    ...       0.10433538    -471.01865890

__s__    ...      -0.89669811

left   ...       0.00051675    -471.01882998
centre ...       0.00103349    -471.01883000
right  ...       0.10433538    -471.01865890
new    ...       0.00197200    -471.01883004

__s__    ...      -0.10236338

 ALPHA AFTER:    1.9720039542275025E-003
  Cycle:     92 Energy:      -471.018830  Gnorm:      0.004081  CPU:    0.736
 Line minimisation2
 ALPHA BEFORE:    1.9880258518433750E-003
  ** Opt : line minimisation
left   ...       0.00000000    -471.01883004
centre ...       0.00049701    -471.01883006
right  ...       0.00099401    -471.01883008

left   ...       0.00000000    -471.01883004
centre ...       0.00049701    -471.01883006
right  ...       0.00099401    -471.01883008
new    ...       1.00099401    -471.01868020

__s__    ...       1.00000000

left   ...       0.00049701    -471.01883006
centre ...       0.00099401    -471.01883008
right  ...       1.00099401    -471.01868020
new    ...       0.10348708    -471.01865891

__s__    ...      -0.89750694

left   ...       0.00049701    -471.01883006
centre ...       0.00099401    -471.01883008
right  ...       0.10348708    -471.01865891
new    ...       0.00191295    -471.01883011

__s__    ...      -0.10157413

 ALPHA AFTER:    1.9129453052534467E-003
  Cycle:     93 Energy:      -471.018830  Gnorm:      0.004076  CPU:    0.749
 Line minimisation2
 ALPHA BEFORE:    1.9272744037281259E-003
[...]
right  ...       1.00099103    -471.01868072
new    ...       0.10305788    -471.01866013

__s__    ...      -0.89793315

left   ...       0.00049551    -471.01883129
centre ...       0.00099103    -471.01883131
right  ...       0.10305788    -471.01866013
new    ...       0.00190047    -471.01883134

__s__    ...      -0.10115741

 ALPHA AFTER:    1.9004694347316969E-003
  Cycle:    103 Energy:      -471.018831  Gnorm:      0.003985  CPU:    0.872
 Line minimisation2
 ALPHA BEFORE:    1.9167146233497413E-003
  ** Opt : line minimisation
left   ...       0.00000000    -471.01883134
centre ...       0.00047918    -471.01883136
right  ...       0.00095836    -471.01883138

left   ...       0.00000000    -471.01883134
centre ...       0.00047918    -471.01883136
right  ...       0.00095836    -471.01883138
new    ...       1.00095836    -471.01868066

__s__    ...       1.00000000

left   ...       0.00047918    -471.01883136
centre ...       0.00095836    -471.01883138
right  ...       1.00095836    -471.01868066
new    ...       0.10220366    -471.01866014

__s__    ...      -0.89875470

left   ...       0.00047918    -471.01883136
centre ...       0.00095836    -471.01883138
right  ...       0.10220366    -471.01866014
new    ...       0.00184668    -471.01883141

__s__    ...      -0.10035698

 ALPHA AFTER:    1.8466804503397272E-003
  Cycle:    104 Energy:      -471.018831  Gnorm:      0.003979  CPU:    0.883
  ** Hessian calculated **
 Line minimisation2
 ALPHA BEFORE:    1.0000000000000000     
  ** Opt : line minimisation
left   ...       0.00000000    -471.01883141
centre ...       0.25000000    -471.01866755
right  ...      -0.25000000    -471.01881711

left   ...      -0.25000000    -471.01881711
centre ...       0.00000000    -471.01883141
right  ...       0.25000000    -471.01866755
new    ...      -0.10492506    -471.01882581

__s__    ...       0.14507494

left   ...      -0.10492506    -471.01882581
centre ...       0.00000000    -471.01883141
right  ...       0.25000000    -471.01866755
new    ...      -0.03908762    -471.01882939

__s__    ...       0.06583744

left   ...      -0.03908762    -471.01882939
centre ...       0.00000000    -471.01883141
right  ...       0.25000000    -471.01866755
new    ...      -0.00897555    -471.01883096

__s__    ...       0.03011207

left   ...      -0.00897555    -471.01883096
centre ...       0.00000000    -471.01883141
right  ...       0.25000000    -471.01866755
new    ...       0.00484584    -471.01883166

__s__    ...       0.01382139

 ALPHA AFTER:    4.8458440731696285E-003
  Cycle:    105 Energy:      -471.018832  Gnorm:      0.003962  CPU:    0.899
 Line minimisation2
 ALPHA BEFORE:    5.4725061545745479E-003
  ** Opt : line minimisation
left   ...       0.00000000    -471.01883166
centre ...       0.00136813    -471.01883172
right  ...       0.00273625    -471.01883178

left   ...       0.00000000    -471.01883166
centre ...       0.00136813    -471.01883172
right  ...       0.00273625    -471.01883178
new    ...       1.00273625    -471.01868169

__s__    ...       1.00000000

left   ...       0.00136813    -471.01883172
centre ...       0.00273625    -471.01883178
right  ...       1.00273625    -471.01868169
new    ...       0.11787693    -471.01866174

__s__    ...      -0.88485932

left   ...       0.00136813    -471.01883172
centre ...       0.00273625    -471.01883178
right  ...       0.11787693    -471.01866174
new    ...       0.00378119    -471.01883183

__s__    ...      -0.11409575

 ALPHA AFTER:    3.7811850419349619E-003
  Cycle:    106 Energy:      -471.018832  Gnorm:      0.003949  CPU:    0.910
 Line minimisation2
 ALPHA BEFORE:    3.9933927905626944E-003
  ** Opt : line minimisation
left   ...       0.00000000    -471.01883183
centre ...       0.00099835    -471.01883187
right  ...       0.00199670    -471.01883192

left   ...       0.00000000    -471.01883183
centre ...       0.00099835    -471.01883187
right  ...       0.00199670    -471.01883192
new    ...       1.00199670    -471.01868156

__s__    ...       1.00000000

left   ...       0.00099835    -471.01883187
centre ...       0.00199670    -471.01883192
right  ...       1.00199670    -471.01868156
new    ...       0.11254537    -471.01866146

__s__    ...      -0.88945133

left   ...       0.00099835    -471.01883187
centre ...       0.00199670    -471.01883192
right  ...       0.11254537    -471.01866146
new    ...       0.00300638    -471.01883196

__s__    ...      -0.10953899

 ALPHA AFTER:    3.0063801138290602E-003
  Cycle:    107 Energy:      -471.018832  Gnorm:      0.003939  CPU:    0.921
 Line minimisation2
 ALPHA BEFORE:    3.0989877086993762E-003
  ** Opt : line minimisation
left   ...       0.00000000    -471.01883196
centre ...       0.00077475    -471.01883199
right  ...       0.00154949    -471.01883202

left   ...       0.00000000    -471.01883196
centre ...       0.00077475    -471.01883199
right  ...       0.00154949    -471.01883202
new    ...       1.00154949    -471.01868144

__s__    ...       1.00000000

left   ...       0.00077475    -471.01883199
centre ...       0.00154949    -471.01883202
right  ...       1.00154949    -471.01868144
new    ...       0.10949751    -471.01866134

__s__    ...      -0.89205198

left   ...       0.00077475    -471.01883199
centre ...       0.00154949    -471.01883202
right  ...       0.10949751    -471.01866134
new    ...       0.00255602    -471.01883206

__s__    ...      -0.10694149

 ALPHA AFTER:    2.5560242449561288E-003
  Cycle:    108 Energy:      -471.018832  Gnorm:      0.003931  CPU:    0.933
 Line minimisation2
 ALPHA BEFORE:    2.6089450687387891E-003
  ** Opt : line minimisation
left   ...       0.00000000    -471.01883206
centre ...       0.00065224    -471.01883209
right  ...       0.00130447    -471.01883212

left   ...       0.00000000    -471.01883206
centre ...       0.00065224    -471.01883209
right  ...       0.00130447    -471.01883212
new    ...       1.00130447    -471.01868136

__s__    ...       1.00000000

left   ...       0.00065224    -471.01883209
centre ...       0.00130447    -471.01883212
right  ...       1.00130447    -471.01868136
new    ...       0.10745349    -471.01866129

__s__    ...      -0.89385098

left   ...       0.00065224    -471.01883209
centre ...       0.00130447    -471.01883212
right  ...       0.10745349    -471.01866129
new    ...       0.00229734    -471.01883216

__s__    ...      -0.10515615

 ALPHA AFTER:    2.2973429904305231E-003
  Cycle:    109 Energy:      -471.018832  Gnorm:      0.003924  CPU:    0.944
 Line minimisation2
 ALPHA BEFORE:    2.3339758815709801E-003
  ** Opt : line minimisation
left   ...       0.00000000    -471.01883216
centre ...       0.00058349    -471.01883218
right  ...       0.00116699    -471.01883221

left   ...       0.00000000    -471.01883216
centre ...       0.00058349    -471.01883218
right  ...       0.00116699    -471.01883221
new    ...       1.00116699    -471.01868128

__s__    ...       1.00000000

left   ...       0.00058349    -471.01883218
centre ...       0.00116699    -471.01883221
right  ...       1.00116699    -471.01868128
new    ...       0.10589700    -471.01866126

__s__    ...      -0.89526999

left   ...       0.00058349    -471.01883218
centre ...       0.00116699    -471.01883221
right  ...       0.10589700    -471.01866126
new    ...       0.00213781    -471.01883224

__s__    ...      -0.10375919

 ALPHA AFTER:    2.1378094158443078E-003
  Cycle:    110 Energy:      -471.018832  Gnorm:      0.003917  CPU:    0.956
 Line minimisation2
 ALPHA BEFORE:    2.1662508739380654E-003
  ** Opt : line minimisation
left   ...       0.00000000    -471.01883224
centre ...       0.00054156    -471.01883227
right  ...       0.00108313    -471.01883229

left   ...       0.00000000    -471.01883224
centre ...       0.00054156    -471.01883227
right  ...       0.00108313    -471.01883229
new    ...       1.00108313    -471.01868122

__s__    ...       1.00000000

left   ...       0.00054156    -471.01883227
centre ...       0.00108313    -471.01883229
right  ...       1.00108313    -471.01868122
new    ...       0.10460869    -471.01866124

__s__    ...      -0.89647443

left   ...       0.00054156    -471.01883227
centre ...       0.00108313    -471.01883229
right  ...       0.10460869    -471.01866124
new    ...       0.00202875    -471.01865733

__s__    ...      -0.10257994

 ALPHA AFTER:    1.0831254369690327E-003
  Cycle:    111 Energy:      -471.018832  Gnorm:      0.003914  CPU:    0.968
 Line minimisation2
 ALPHA BEFORE:    1.0871732853308194E-003
  ** Opt : line minimisation
left   ...       0.00000000    -471.01883229
centre ...       0.00027179    -471.01883230
right  ...       0.00054359    -471.01883231

left   ...       0.00000000    -471.01883229
centre ...       0.00027179    -471.01883230
right  ...       0.00054359    -471.01883231
new    ...       1.00054359    -471.01868120

__s__    ...       1.00000000

left   ...       0.00027179    -471.01883230
centre ...       0.00054359    -471.01883231
right  ...       1.00054359    -471.01868120
new    ...       0.10382955    -471.01866124

__s__    ...      -0.89671404

left   ...       0.00027179    -471.01883230
centre ...       0.00054359    -471.01883231
right  ...       0.10382955    -471.01866124
new    ...       0.00161059    -471.01865735

__s__    ...      -0.10221896

 ALPHA AFTER:    5.4358664266540970E-004
  Cycle:    112 Energy:      -471.018832  Gnorm:      0.003912  CPU:    0.980
 Line minimisation2
 ALPHA BEFORE:    5.4421440774848353E-004
  ** Opt : line minimisation
left   ...       0.00000000    -471.01883231
centre ...       0.00013605    -471.01883231
right  ...       0.00027211    -471.01865732

left   ...       0.00000000    -471.01883231
centre ...       0.00013605    -471.01883231
right  ...       0.00027211    -471.01865732
new    ...       0.00006803    -471.01883231

__s__    ...      -0.00020408

 ALPHA AFTER:    1.3605360193712088E-004
  Cycle:    113 Energy:      -471.018832  Gnorm:      0.003912  CPU:    0.988
 Line minimisation2
 ALPHA BEFORE:    1.3607478309672752E-004
  ** Opt : line minimisation
left   ...       0.00000000    -471.01883231
centre ...       0.00003402    -471.01883232
right  ...       0.00006804    -471.01865732

left   ...       0.00000000    -471.01883231
centre ...       0.00003402    -471.01883232
right  ...       0.00006804    -471.01865732
new    ...       0.00001701    -471.01883231

__s__    ...      -0.00005103

 ALPHA AFTER:    3.4018695774181879E-005
  Cycle:    114 Energy:      -471.018832  Gnorm:      0.003912  CPU:    0.996
  ** Hessian calculated **
 Line minimisation2
 ALPHA BEFORE:    1.0000000000000000     
  ** Opt : line minimisation
left   ...       0.00000000    -471.01883232
centre ...       0.25000000    -471.01866807
right  ...      -0.25000000    -471.01881851

left   ...      -0.25000000    -471.01881851
centre ...       0.00000000    -471.01883232
right  ...       0.25000000    -471.01866807
new    ...      -0.10561365    -471.01882687

__s__    ...       0.14438635

left   ...      -0.10561365    -471.01882687
centre ...       0.00000000    -471.01883232
right  ...       0.25000000    -471.01866807
new    ...      -0.03986336    -471.01883033

__s__    ...       0.06575029

left   ...      -0.03986336    -471.01883033
centre ...       0.00000000    -471.01883232
right  ...       0.25000000    -471.01866807
new    ...      -0.00969683    -471.01883184

__s__    ...       0.03016652

left   ...      -0.00969683    -471.01883184
centre ...       0.00000000    -471.01883232
right  ...       0.25000000    -471.01866807
new    ...       0.00419122    -471.01865752

__s__    ...       0.01388806

left   ...      -0.00969683    -471.01883184
centre ...       0.00000000    -471.01883232
right  ...       0.00419122    -471.01865752
new    ...      -0.00484024    -471.01883208

__s__    ...      -0.00903146

left   ...      -0.00484024    -471.01883208
centre ...       0.00000000    -471.01883232
right  ...       0.00419122    -471.01865752
new    ...      -0.00241482    -471.01883220

__s__    ...       0.00242542

 ALPHA AFTER:   -2.4148174552529535E-003
  Cycle:    115 Energy:      -471.018832  Gnorm:      0.003912  CPU:    1.016
  ** Hessian calculated **
 Line minimisation2
 ALPHA BEFORE:    1.0000000000000000     
  ** Opt : line minimisation
left   ...       0.00000000    -471.01883232
centre ...       0.25000000    -471.01866807
right  ...      -0.25000000    -471.01881851

left   ...      -0.25000000    -471.01881851
centre ...       0.00000000    -471.01883232
right  ...       0.25000000    -471.01866807
new    ...      -0.10561365    -471.01882687

__s__    ...       0.14438635

left   ...      -0.10561365    -471.01882687
centre ...       0.00000000    -471.01883232
right  ...       0.25000000    -471.01866807
new    ...      -0.03986336    -471.01883033

__s__    ...       0.06575029

left   ...      -0.03986336    -471.01883033
centre ...       0.00000000    -471.01883232
right  ...       0.25000000    -471.01866807
new    ...      -0.00969683    -471.01883184

__s__    ...       0.03016652

left   ...      -0.00969683    -471.01883184
centre ...       0.00000000    -471.01883232
right  ...       0.25000000    -471.01866807
new    ...       0.00419122    -471.01865752

__s__    ...       0.01388806

left   ...      -0.00969683    -471.01883184
centre ...       0.00000000    -471.01883232
right  ...       0.00419122    -471.01865752
new    ...      -0.00484024    -471.01883208

__s__    ...      -0.00903146

left   ...      -0.00484024    -471.01883208
centre ...       0.00000000    -471.01883232
right  ...       0.00419122    -471.01865752
new    ...      -0.00241482    -471.01883220

__s__    ...       0.00242542

 ALPHA AFTER:   -2.4148174552529535E-003


  **** Conditions for a minimum have not been satisfied. However ****
  **** no lower point can be found - treat results with caution  ****
  **** unless gradient norm is small (less than 0.1)             ****


  Final energy =    -471.01883232 eV
  Final Gnorm  =       0.00391194

  Components of energy : 

--------------------------------------------------------------------------------
  Interatomic potentials     =          72.58623716 eV    
  Monopole - monopole (real) =        -272.11815011 eV    
  Monopole - monopole (recip)=        -271.48691936 eV    
  Monopole - monopole (total)=        -543.60506948 eV    
--------------------------------------------------------------------------------
  Total lattice energy       =        -471.01883232 eV    
--------------------------------------------------------------------------------
  Total lattice energy       =          -45446.1171 kJ/(mole unit cells)
--------------------------------------------------------------------------------

  Final fractional coordinates of atoms :

--------------------------------------------------------------------------------
   No.  Atomic        x           y          z          Radius
        Label       (Frac)      (Frac)     (Frac)       (Angs) 
--------------------------------------------------------------------------------
     1  O     c     0.000000    0.333330    0.833330    0.000000
     2  O     c     0.039654    0.480119    0.257961    0.000000
     3  O     c     0.781854    0.755015    0.293224    0.000000
     4  O     c     0.281874    0.005809    0.101444    0.000000
     5  O     c     0.499787    0.446560    0.032443    0.000000
     6  O     c     0.485014    0.241095    0.768660    0.000000
     7  O     c     0.436318    0.907213    0.647043    0.000000
     8  O     c     0.962549    0.044187    0.721502    0.000000
     9  O     c     0.649163    0.314119    0.442128    0.000000
    10  Sr    c     0.100384    0.105134    0.353224    0.000000
    11  Sr    c     0.146416    0.706693    0.879996    0.000000
    12  Sr    c     0.443527    0.752713    0.406413    0.000000
    13  Ti    c     0.751664    0.511134    0.244837    0.000000
    14  Ti    c     0.272834    0.224914    0.895720    0.000000
    15  Ti    c     0.692610    0.156442    0.692442    0.000000
--------------------------------------------------------------------------------

  Final Cartesian lattice vectors (Angstroms) :

        5.745237   -1.195190   -0.824782
       -1.195190    6.727604    0.712051
       -1.649564    1.424103    7.293729


  Final cell parameters and derivatives :

--------------------------------------------------------------------------------
       a            5.925917 Angstrom     dE/de1(xx)     0.013510 eV/strain
       b            6.869946 Angstrom     dE/de2(yy)     0.029098 eV/strain
       c            7.612333 Angstrom     dE/de3(zz)     0.065466 eV/strain
       alpha       71.324319 Degrees      dE/de4(yz)    -0.008299 eV/strain
       beta       112.406646 Degrees      dE/de5(xz)     0.003507 eV/strain
       gamma      112.371154 Degrees      dE/de6(xy)     0.007347 eV/strain
--------------------------------------------------------------------------------

  Primitive cell volume =           259.324636 Angs**3

  Density of cell =      3.525085 g/cm**3

  Non-primitive cell volume =           259.324636 Angs**3


  Final internal derivatives :

--------------------------------------------------------------------------------
   No.  Atomic          a             b             c           Radius
        Label          (eV)          (eV)          (eV)        (eV/Angs)
--------------------------------------------------------------------------------
      1 O     c       0.000000      0.000000      0.000000      0.000000
      2 O     c      -0.006273      0.001240      0.001900      0.000000
      3 O     c      -0.000121      0.017791      0.015059      0.000000
      4 O     c      -0.020710     -0.009443      0.093088      0.000000
      5 O     c      -0.017931     -0.000960     -0.045124      0.000000
      6 O     c       0.047490     -0.025014     -0.072563      0.000000
      7 O     c      -0.005383      0.013912      0.022968      0.000000
      8 O     c      -0.007396      0.003051     -0.008057      0.000000
      9 O     c      -0.012344      0.007106      0.018686      0.000000
     10 Sr    c       0.009991     -0.017304     -0.031878      0.000000
     11 Sr    c      -0.002394      0.013826      0.010552      0.000000
     12 Sr    c       0.003604     -0.015392     -0.002490      0.000000
     13 Ti    c       0.026116      0.013200      0.007402      0.000000
     14 Ti    c      -0.016712      0.021617     -0.055165      0.000000
     15 Ti    c      -0.004219      0.012486      0.035314      0.000000
--------------------------------------------------------------------------------
  Maximum abs         0.047490      0.025014      0.093088      0.000000
--------------------------------------------------------------------------------


  Time to end of optimisation =       1.0355 seconds

 Exiting ------OPTIONS------

  Peak dynamic memory used =       0.60 MB 


  Timing analysis for GULP :

--------------------------------------------------------------------------------
  Task / Subroutine                                          Time (Seconds)
--------------------------------------------------------------------------------
  Calculation of reciprocal space energy and derivatives          0.0660
  Calculation of real space energy and derivatives                0.9535
  Calculation and manipulation of Hessian matrix                  0.0001
  Calculation of matrix inversion                                 0.0004
  Global summation overhead                                       0.0004
--------------------------------------------------------------------------------
  Total CPU time                                                  1.0355
--------------------------------------------------------------------------------


  Job Finished at 12:02.51  4th February   2020                               

