********************************************************************************
*                       GENERAL UTILITY LATTICE PROGRAM                        *
*                                 Julian Gale                                  *
*                       Curtin Institute for Computation                       *
*                           Department of Chemistry                            *
*                    Curtin University, Western Australia                      *
********************************************************************************
* Version = 5.1.1 * Last modified =  25th August 2019                          *
********************************************************************************
*  optimise     - perform optimisation run                                     *
*  conp         - constant pressure calculation                                *
*  nosymmetry   - turn off symmetry after initial structure generation         *
*  full         - generate full unit cell when symmetry is removed             *
*  conjugate    - use conjugate gradients minimiser                            *
********************************************************************************
* ASE calculation                                                              *
********************************************************************************


  Job Started  at 16:25.08  3rd February   2020                               

  Number of CPUs =     1


  Total number of configurations input =      1

********************************************************************************
*  Input for Configuration =   1                                               *
********************************************************************************

  Formula = O9Sr3Ti3                                                    

  Number of irreducible atoms/shells =      15


  Total number atoms/shells =      15

  Dimensionality = 3               :  Bulk   



  Cartesian lattice vectors (Angstroms) :

        4.000000    0.000000    0.000000
        0.000000    4.000000    0.000000
        0.000000    0.000000    8.000000

  Cell parameters (Angstroms/Degrees):

  a =       4.0000    alpha =  90.0000
  b =       4.0000    beta  =  90.0000
  c =       8.0000    gamma =  90.0000

  Initial cell volume =         128.000000 Angs**3

  Temperature of configuration =  0.000     K 

  Pressure of configuration =         0.000 GPa 

  Fractional coordinates of asymmetric unit :

--------------------------------------------------------------------------------
   No.  Atomic       x           y          z         Charge      Occupancy
        Label      (Frac)      (Frac)     (Frac)        (e)         (Frac)  
--------------------------------------------------------------------------------
      1 O     c    0.500000    0.500000    0.750000    -2.00000    1.000000    
      2 O     c    0.500000 *  0.000000 *  0.750000 *  -2.00000    1.000000    
      3 O     c    0.000000 *  0.500000 *  0.750000 *  -2.00000    1.000000    
      4 O     c    0.000000 *  0.500000 *  0.000000 *  -2.00000    1.000000    
      5 O     c    0.000000 *  0.000000 *  0.250000 *  -2.00000    1.000000    
      6 O     c    0.500000 *  0.000000 *  0.250000 *  -2.00000    1.000000    
      7 O     c    0.500000 *  0.500000 *  0.250000 *  -2.00000    1.000000    
      8 O     c    0.500000 *  0.500000 *  0.500000 *  -2.00000    1.000000    
      9 O     c    0.500000 *  0.000000 *  0.500000 *  -2.00000    1.000000    
     10 Sr    c    0.250000 *  0.750000 *  0.375000 *   2.00000    1.000000    
     11 Sr    c    0.250000 *  0.750000 *  0.875000 *   2.00000    1.000000    
     12 Sr    c    0.250000 *  0.250000 *  0.625000 *   2.00000    1.000000    
     13 Ti    c    0.250000 *  0.750000 *  0.625000 *   4.00000    1.000000    
     14 Ti    c    0.750000 *  0.250000 *  0.875000 *   4.00000    1.000000    
     15 Ti    c    0.750000 *  0.750000 *  0.375000 *   4.00000    1.000000    
--------------------------------------------------------------------------------



********************************************************************************
*  General input information                                                   *
********************************************************************************

  Species output for all configurations : 

--------------------------------------------------------------------------------
  Species    Type    Atomic    Atomic    Charge       Radii (Angs)     Library
                     Number     Mass       (e)     Cova   Ionic  VDW   Symbol
--------------------------------------------------------------------------------
    O        Core        8      16.00  -2.000000   0.730  0.000  1.360          
    Sr       Core       38      87.62   2.000000   1.120  0.000  1.670          
    Ti       Core       22      47.88   4.000000   1.470  0.000  2.190          
--------------------------------------------------------------------------------


  Lattice summation method               =    Ewald          (3-D)
                                         =    Parry          (2-D)
                                         =    Saunders et al (1-D)
  Accuracy factor for lattice sums       =   12.000


  Time limit = Infinity

  Maximum range for interatomic potentials =    100000.000000 Angstroms

  General interatomic potentials :

--------------------------------------------------------------------------------
Atom  Types   Potential      Parameter       Value         Units   Cutoffs(Ang)
  1     2                                                            Min /  Max 
--------------------------------------------------------------------------------
O    c Sr   c Buckingham    Buckingham A     1952.3900    eV        0.000 10.000
                            Buckingham rho  0.33685000    Ang       
                            Buckingham C     19.220000    eV*Ang^6  
--------------------------------------------------------------------------------
O    c Ti   c Buckingham    Buckingham A     4590.7279    eV        0.000 10.000
                            Buckingham rho  0.26100000    Ang       
                            Buckingham C     0.0000000    eV*Ang^6  
--------------------------------------------------------------------------------
O    c O    c Buckingham    Buckingham A     1388.7700    eV        0.000 10.000
                            Buckingham rho  0.36262000    Ang       
                            Buckingham C     175.00000    eV*Ang^6  
--------------------------------------------------------------------------------
 Calling ------OPTIONS------

********************************************************************************
*  Output for configuration   1                                                *
********************************************************************************


  Components of energy : 

--------------------------------------------------------------------------------
  Interatomic potentials     =         283.74069147 eV    
  Monopole - monopole (real) =        -200.67401279 eV    
  Monopole - monopole (recip)=        -313.23454466 eV    
  Monopole - monopole (total)=        -513.90855745 eV    
--------------------------------------------------------------------------------
  Total lattice energy       =        -230.16786598 eV    
--------------------------------------------------------------------------------
  Total lattice energy       =          -22207.6806 kJ/(mole unit cells)
--------------------------------------------------------------------------------


  Number of variables =       48

  Maximum number of calculations  =          1000
  Maximum Hessian update interval =            10
  Maximum step size               =   1.000000000
  Maximum parameter tolerance     =   0.000010000
  Maximum function  tolerance     =   0.000010000
  Maximum gradient  tolerance     =   0.001000000
  Maximum gradient  component     =   0.010000000

  Cell parameters to be optimised using strains

  Conjugate gradient optimiser to be used

  Lower half triangular hessian to be used

  Start of bulk optimisation :

  Cycle:      0 Energy:      -230.167866  Gnorm:     22.287918  CPU:    0.013
 Perform trimming
 Line minimisation2
 ALPHA BEFORE:    1.0000000000000000     
  ** Opt : line minimisation
left   ...       0.00000000    -230.16786598
centre ...       0.25000000    -291.31288697
right  ...       0.50000000    -323.60564679

left   ...       0.00000000    -230.16786598
centre ...       0.25000000    -291.31288697
right  ...       0.50000000    -323.60564679
new    ...       0.65481134    -333.87884266

__s__    ...       0.15481134

left   ...       0.25000000    -291.31288697
centre ...       0.50000000    -323.60564679
right  ...       0.65481134    -333.87884266
new    ...       0.79124407    -338.62254581

__s__    ...       0.13643273

left   ...       0.50000000    -323.60564679
centre ...       0.65481134    -333.87884266
right  ...       0.79124407    -338.62254581
new    ...       0.88330707    -340.02226173

__s__    ...       0.09206300

left   ...       0.65481134    -333.87884266
centre ...       0.79124407    -338.62254581
right  ...       0.88330707    -340.02226173
new    ...       0.92605425    -340.24616919

__s__    ...       0.04274717

 ALPHA AFTER:   0.92605424545865089     
  Cycle:      1 Energy:      -340.246169  Gnorm:     15.240717  CPU:    0.026
 Perform trimming
 Line minimisation2
 ALPHA BEFORE:   0.92605424545865089     
  ** Opt : line minimisation
left   ...       0.00000000    -340.24616919
centre ...       0.23151356    -386.54672983
right  ...       0.46302712    -388.34292258

left   ...       0.00000000    -340.24616919
centre ...       0.23151356    -386.54672983
right  ...       0.46302712    -388.34292258
new    ...       0.35661421    -392.10925495

__s__    ...      -0.10641291

left   ...       0.23151356    -386.54672983
centre ...       0.35661421    -392.10925495
right  ...       0.46302712    -388.34292258
new    ...       0.35851651    -392.10509549

__s__    ...       0.00190230

 ALPHA AFTER:   0.35661421101815116     
  Cycle:      2 Energy:      -392.109255  Gnorm:      6.444002  CPU:    0.034
 Line minimisation2
 ALPHA BEFORE:   0.35661421101815116     
  ** Opt : line minimisation
left   ...       0.00000000    -392.10925495
centre ...       0.08915355    -399.51367342
right  ...       0.17830711    -405.09719178

left   ...       0.00000000    -392.10925495
centre ...       0.08915355    -399.51367342
right  ...       0.17830711    -405.09719178
new    ...       0.40710639    -410.58642815

__s__    ...       0.22879928

left   ...       0.08915355    -399.51367342
centre ...       0.17830711    -405.09719178
right  ...       0.40710639    -410.58642815
new    ...       0.39142351    -410.63765347

__s__    ...      -0.01568288

 ALPHA AFTER:   0.39142351006182696     
  Cycle:      3 Energy:      -410.637653  Gnorm:      5.341341  CPU:    0.039
 Line minimisation2
 ALPHA BEFORE:   0.39142351006182696     
  ** Opt : line minimisation
left   ...       0.00000000    -410.63765347
centre ...       0.09785588    -416.12804132
right  ...       0.19571176    -420.35054055

left   ...       0.00000000    -410.63765347
centre ...       0.09785588    -416.12804132
right  ...       0.19571176    -420.35054055
new    ...       0.47267709    -425.83394009

__s__    ...       0.27696533

left   ...       0.09785588    -416.12804132
centre ...       0.19571176    -420.35054055
right  ...       0.47267709    -425.83394009
new    ...       0.49308341    -425.88334411

__s__    ...       0.02040632

 ALPHA AFTER:   0.49308340813776036     
  Cycle:      4 Energy:      -425.883344  Gnorm:      4.995190  CPU:    0.043
 Line minimisation2
 ALPHA BEFORE:   0.49308340813776036     
  ** Opt : line minimisation
left   ...       0.00000000    -425.88334411
centre ...       0.12327085    -431.67177297
right  ...       0.24654170    -434.73028631

left   ...       0.00000000    -425.88334411
centre ...       0.12327085    -431.67177297
right  ...       0.24654170    -434.73028631
new    ...       0.32301515    -435.09315950

__s__    ...       0.07647344

 ALPHA AFTER:   0.32301514663539105     
  Cycle:      5 Energy:      -435.093159  Gnorm:      4.405720  CPU:    0.046
 Line minimisation2
 ALPHA BEFORE:   0.32301514663539105     
  ** Opt : line minimisation
left   ...       0.00000000    -435.09315950
centre ...       0.08075379    -437.82801325
right  ...       0.16150757    -439.62406366

left   ...       0.00000000    -435.09315950
centre ...       0.08075379    -437.82801325
right  ...       0.16150757    -439.62406366
new    ...       0.27562296    -440.86459816

__s__    ...       0.11411539

left   ...       0.08075379    -437.82801325
centre ...       0.16150757    -439.62406366
right  ...       0.27562296    -440.86459816
new    ...       0.31172111    -440.98112804

__s__    ...       0.03609815

 ALPHA AFTER:   0.31172111152652837     
  Cycle:      6 Energy:      -440.981128  Gnorm:      3.388529  CPU:    0.050
 Line minimisation2
 ALPHA BEFORE:   0.31172111152652837     
  ** Opt : line minimisation
left   ...       0.00000000    -440.98112804
centre ...       0.07793028    -442.68663342
right  ...       0.15586056    -443.73603775

left   ...       0.00000000    -440.98112804
centre ...       0.07793028    -442.68663342
right  ...       0.15586056    -443.73603775
new    ...       0.24154142    -444.25052444

__s__    ...       0.08568086

left   ...       0.07793028    -442.68663342
centre ...       0.15586056    -443.73603775
right  ...       0.24154142    -444.25052444
new    ...       0.26453669    -444.28965683

__s__    ...       0.02299527

 ALPHA AFTER:   0.26453668755646881     
  Cycle:      7 Energy:      -444.289657  Gnorm:      3.572728  CPU:    0.054
 Line minimisation2
 ALPHA BEFORE:   0.26453668755646881     
  ** Opt : line minimisation
left   ...       0.00000000    -444.28965683
centre ...       0.06613417    -446.07433490
right  ...       0.13226834    -447.49596770

left   ...       0.00000000    -444.28965683
centre ...       0.06613417    -446.07433490
right  ...       0.13226834    -447.49596770
new    ...       0.35817311    -449.52253114

__s__    ...       0.22590477

left   ...       0.06613417    -446.07433490
centre ...       0.13226834    -447.49596770
right  ...       0.35817311    -449.52253114
new    ...       0.34980271    -449.52861819

__s__    ...      -0.00837040

 ALPHA AFTER:   0.34980271139353414     
  Cycle:      8 Energy:      -449.528618  Gnorm:      2.813873  CPU:    0.061
 Line minimisation2
 ALPHA BEFORE:   0.34980271139353414     
  ** Opt : line minimisation
left   ...       0.00000000    -449.52861819
centre ...       0.08745068    -450.91422366
right  ...       0.17490136    -451.99230116

left   ...       0.00000000    -449.52861819
centre ...       0.08745068    -450.91422366
right  ...       0.17490136    -451.99230116
new    ...       0.43774524    -453.48155416

__s__    ...       0.26284388

left   ...       0.08745068    -450.91422366
centre ...       0.17490136    -451.99230116
right  ...       0.43774524    -453.48155416
new    ...       0.45528516    -453.48864741

__s__    ...       0.01753992

 ALPHA AFTER:   0.45528515704590650     
  Cycle:      9 Energy:      -453.488647  Gnorm:      1.874484  CPU:    0.066
 Line minimisation2
 ALPHA BEFORE:   0.45528515704590650     
  ** Opt : line minimisation
left   ...       0.00000000    -453.48864741
centre ...       0.11382129    -454.27618056
right  ...       0.22764258    -454.85128634

left   ...       0.00000000    -453.48864741
centre ...       0.11382129    -454.27618056
right  ...       0.22764258    -454.85128634
new    ...       0.47888094    -455.39109611

__s__    ...       0.25123836

left   ...       0.11382129    -454.27618056
centre ...       0.22764258    -454.85128634
right  ...       0.47888094    -455.39109611
new    ...       0.48830574    -455.39197349

__s__    ...       0.00942481

 ALPHA AFTER:   0.48830574263140286     
  Cycle:     10 Energy:      -455.391973  Gnorm:      1.736579  CPU:    0.070
 Line minimisation2
 ALPHA BEFORE:   0.48830574263140286     
  ** Opt : line minimisation
left   ...       0.00000000    -455.39197349
centre ...       0.12207644    -456.09882608
right  ...       0.24415287    -456.57626426

left   ...       0.00000000    -455.39197349
centre ...       0.12207644    -456.09882608
right  ...       0.24415287    -456.57626426
new    ...       0.43716997    -456.81150645

__s__    ...       0.19301710

 ALPHA AFTER:   0.43716997299457588     
  Cycle:     11 Energy:      -456.811506  Gnorm:      1.908897  CPU:    0.076
 Line minimisation2
 ALPHA BEFORE:   0.43716997299457588     
  ** Opt : line minimisation
left   ...       0.00000000    -456.81150645
centre ...       0.10929249    -457.56380374
right  ...       0.21858499    -458.17013182

left   ...       0.00000000    -456.81150645
centre ...       0.10929249    -457.56380374
right  ...       0.21858499    -458.17013182
new    ...       0.61791878    -458.99052078

__s__    ...       0.39933380

left   ...       0.10929249    -457.56380374
centre ...       0.21858499    -458.17013182
right  ...       0.61791878    -458.99052078
new    ...       0.56780965    -459.01889747

__s__    ...      -0.05010913

 ALPHA AFTER:   0.56780964837571402     
  Cycle:     12 Energy:      -459.018897  Gnorm:      1.705407  CPU:    0.082
 Line minimisation2
 ALPHA BEFORE:   0.56780964837571402     
  ** Opt : line minimisation
left   ...       0.00000000    -459.01889747
centre ...       0.14195241    -459.86319372
right  ...       0.28390482    -460.52032195

left   ...       0.00000000    -459.01889747
centre ...       0.14195241    -459.86319372
right  ...       0.28390482    -460.52032195
new    ...       0.71130935    -461.07241379

__s__    ...       0.42740452

left   ...       0.14195241    -459.86319372
centre ...       0.28390482    -460.52032195
right  ...       0.71130935    -461.07241379
new    ...       0.60778834    -461.17045248

__s__    ...      -0.10352101

 ALPHA AFTER:   0.60778833764436124     
  Cycle:     13 Energy:      -461.170452  Gnorm:      1.881883  CPU:    0.088
 Line minimisation2
 ALPHA BEFORE:   0.60778833764436124     
  ** Opt : line minimisation
left   ...       0.00000000    -461.17045248
centre ...       0.15194708    -462.21962335
right  ...       0.30389417    -462.84410245

left   ...       0.00000000    -461.17045248
centre ...       0.15194708    -462.21962335
right  ...       0.30389417    -462.84410245
new    ...       0.45134803    -462.83483164

__s__    ...       0.14745386

 ALPHA AFTER:   0.30389416882218062     
  Cycle:     14 Energy:      -462.844102  Gnorm:      1.616850  CPU:    0.093
 Line minimisation2
 ALPHA BEFORE:   0.30389416882218062     
  ** Opt : line minimisation
left   ...       0.00000000    -462.84410245
centre ...       0.07597354    -463.25282143
right  ...       0.15194708    -463.56668159

left   ...       0.00000000    -462.84410245
centre ...       0.07597354    -463.25282143
right  ...       0.15194708    -463.56668159
new    ...       0.36533463    -463.96980281

__s__    ...       0.21338754

left   ...       0.07597354    -463.25282143
centre ...       0.15194708    -463.56668159
right  ...       0.36533463    -463.96980281
new    ...       0.38054991    -463.97342838

__s__    ...       0.01521529

 ALPHA AFTER:   0.38054991213468575     
  Cycle:     15 Energy:      -463.973428  Gnorm:      1.404716  CPU:    0.099
 Line minimisation2
 ALPHA BEFORE:   0.38054991213468575     
  ** Opt : line minimisation
left   ...       0.00000000    -463.97342838
centre ...       0.09513748    -464.35556613
right  ...       0.19027496    -464.62660161

left   ...       0.00000000    -463.97342838
centre ...       0.09513748    -464.35556613
right  ...       0.19027496    -464.62660161
new    ...       0.37479539    -464.83914489

__s__    ...       0.18452044

left   ...       0.09513748    -464.35556613
centre ...       0.19027496    -464.62660161
right  ...       0.37479539    -464.83914489
new    ...       0.37744575    -464.83922223

__s__    ...       0.00265036

 ALPHA AFTER:   0.37744575088143811     
  Cycle:     16 Energy:      -464.839222  Gnorm:      1.018780  CPU:    0.105
 Line minimisation2
 ALPHA BEFORE:   0.37744575088143811     
  ** Opt : line minimisation
left   ...       0.00000000    -464.83922223
centre ...       0.09436144    -465.04655577
right  ...       0.18872288    -465.21880926

left   ...       0.00000000    -464.83922223
centre ...       0.09436144    -465.04655577
right  ...       0.18872288    -465.21880926
new    ...       0.60488475    -465.56141001

__s__    ...       0.41616188

left   ...       0.09436144    -465.04655577
centre ...       0.18872288    -465.21880926
right  ...       0.60488475    -465.56141001
new    ...       0.60647853    -465.56144269

__s__    ...       0.00159378

 ALPHA AFTER:   0.60647852970038107     
  Cycle:     17 Energy:      -465.561443  Gnorm:      0.784477  CPU:    0.113
 Line minimisation2
 ALPHA BEFORE:   0.60647852970038107     
  ** Opt : line minimisation
left   ...       0.00000000    -465.56144269
centre ...       0.15161963    -465.74496370
right  ...       0.30323926    -465.87135567

left   ...       0.00000000    -465.56144269
centre ...       0.15161963    -465.74496370
right  ...       0.30323926    -465.87135567
new    ...       0.56287196    -465.95513064

__s__    ...       0.25963269

left   ...       0.15161963    -465.74496370
centre ...       0.30323926    -465.87135567
right  ...       0.56287196    -465.95513064
new    ...       0.56291074    -465.95513045

__s__    ...       0.00003879

 ALPHA AFTER:   0.56287195547737834     
  Cycle:     18 Energy:      -465.955131  Gnorm:      0.908643  CPU:    0.118
 Perform trimming
 Line minimisation2
 ALPHA BEFORE:   0.56287195547737834     
  ** Opt : line minimisation
left   ...       0.00000000    -465.95513064
centre ...       0.14071799    -466.18246460
right  ...       0.28143598    -466.35766674

left   ...       0.00000000    -465.95513064
centre ...       0.14071799    -466.18246460
right  ...       0.28143598    -466.35766674
new    ...       0.68399525    -466.56606169

__s__    ...       0.40255927

left   ...       0.14071799    -466.18246460
centre ...       0.28143598    -466.35766674
right  ...       0.68399525    -466.56606169
new    ...       0.67603949    -466.56621455

__s__    ...      -0.00795576

 ALPHA AFTER:   0.67603949246250894     
  Cycle:     19 Energy:      -466.566215  Gnorm:      1.125089  CPU:    0.124
 Line minimisation2
 ALPHA BEFORE:   0.67603949246250894     
  ** Opt : line minimisation
left   ...       0.00000000    -466.56621455
centre ...       0.16900987    -466.89269002
right  ...       0.33801975    -466.90913416

left   ...       0.00000000    -466.56621455
centre ...       0.16900987    -466.89269002
right  ...       0.33801975    -466.90913416
new    ...       0.26247913    -466.93922249

__s__    ...      -0.07554061

 ALPHA AFTER:   0.26247913160218206     
  Cycle:     20 Energy:      -466.939222  Gnorm:      0.766374  CPU:    0.129
 Line minimisation2
 ALPHA BEFORE:   0.26247913160218206     
  ** Opt : line minimisation
left   ...       0.00000000    -466.93922249
centre ...       0.06561978    -467.01829051
right  ...       0.13123957    -467.08389923

left   ...       0.00000000    -466.93922249
centre ...       0.06561978    -467.01829051
right  ...       0.13123957    -467.08389923
new    ...       0.41830002    -467.20912920

__s__    ...       0.28706045

left   ...       0.06561978    -467.01829051
centre ...       0.13123957    -467.08389923
right  ...       0.41830002    -467.20912920
new    ...       0.41126864    -467.20923515

__s__    ...      -0.00703138

 ALPHA AFTER:   0.41126863776974804     
  Cycle:     21 Energy:      -467.209235  Gnorm:      0.627209  CPU:    0.135
 Line minimisation2
 ALPHA BEFORE:   0.41126863776974804     
  ** Opt : line minimisation
left   ...       0.00000000    -467.20923515
centre ...       0.10281716    -467.29396615
right  ...       0.20563432    -467.36876997

left   ...       0.00000000    -467.20923515
centre ...       0.10281716    -467.29396615
right  ...       0.20563432    -467.36876997
new    ...       0.92897934    -467.60054429

__s__    ...       0.72334502

left   ...       0.10281716    -467.29396615
centre ...       0.20563432    -467.36876997
right  ...       0.92897934    -467.60054429
new    ...       0.89241697    -467.60155278

__s__    ...      -0.03656237

 ALPHA AFTER:   0.89241696561457784     
  Cycle:     22 Energy:      -467.601553  Gnorm:      0.663624  CPU:    0.143
 Line minimisation2
 ALPHA BEFORE:   0.89241696561457784     
  ** Opt : line minimisation
left   ...       0.00000000    -467.60155278
centre ...       0.22310424    -467.78826216
right  ...       0.44620848    -467.90566936

left   ...       0.00000000    -467.60155278
centre ...       0.22310424    -467.78826216
right  ...       0.44620848    -467.90566936
new    ...       0.71262494    -467.95111958

__s__    ...       0.26641646

 ALPHA AFTER:   0.71262493825789675     
  Cycle:     23 Energy:      -467.951120  Gnorm:      0.763974  CPU:    0.148
 Line minimisation2
 ALPHA BEFORE:   0.71262493825789675     
  ** Opt : line minimisation
left   ...       0.00000000    -467.95111958
centre ...       0.17815623    -468.13811957
right  ...       0.35631247    -468.23349269

left   ...       0.00000000    -467.95111958
centre ...       0.17815623    -468.13811957
right  ...       0.35631247    -468.23349269
new    ...       0.45267471    -468.24508104

__s__    ...       0.09636224

 ALPHA AFTER:   0.45267470831140189     
  Cycle:     24 Energy:      -468.245081  Gnorm:      0.688547  CPU:    0.153
 Line minimisation2
 ALPHA BEFORE:   0.45267470831140189     
  ** Opt : line minimisation
left   ...       0.00000000    -468.24508104
centre ...       0.11316868    -468.35666523
right  ...       0.22633735    -468.45056336

left   ...       0.00000000    -468.24508104
centre ...       0.11316868    -468.35666523
right  ...       0.22633735    -468.45056336
new    ...       0.77058345    -468.64521506

__s__    ...       0.54424610

left   ...       0.11316868    -468.35666523
centre ...       0.22633735    -468.45056336
right  ...       0.77058345    -468.64521506
new    ...       0.74750151    -468.64588642

__s__    ...      -0.02308195

 ALPHA AFTER:   0.74750150553106376     
  Cycle:     25 Energy:      -468.645886  Gnorm:      0.685903  CPU:    0.158
 Line minimisation2
 ALPHA BEFORE:   0.74750150553106376     
  ** Opt : line minimisation
left   ...       0.00000000    -468.64588642
centre ...       0.18687538    -468.77955929
right  ...       0.37375075    -468.78764317

left   ...       0.00000000    -468.64588642
centre ...       0.18687538    -468.77955929
right  ...       0.37375075    -468.78764317
new    ...       0.29234181    -468.79965008

__s__    ...      -0.08140894

 ALPHA AFTER:   0.29234181169975926     
  Cycle:     26 Energy:      -468.799650  Gnorm:      0.469950  CPU:    0.162
 Line minimisation2
 ALPHA BEFORE:   0.29234181169975926     
  ** Opt : line minimisation
left   ...       0.00000000    -468.79965008
centre ...       0.07308545    -468.83415657
right  ...       0.14617091    -468.86551363

left   ...       0.00000000    -468.79965008
centre ...       0.07308545    -468.83415657
right  ...       0.14617091    -468.86551363
new    ...       0.83730003    -469.00648975

__s__    ...       0.69112912

left   ...       0.07308545    -468.83415657
centre ...       0.14617091    -468.86551363
right  ...       0.83730003    -469.00648975
new    ...       0.83804107    -469.00649879

__s__    ...       0.00074104

 ALPHA AFTER:   0.83804106605424111     
  Cycle:     27 Energy:      -469.006499  Gnorm:      0.421365  CPU:    0.166
 Line minimisation2
 ALPHA BEFORE:   0.83804106605424111     
  ** Opt : line minimisation
left   ...       0.00000000    -469.00649879
centre ...       0.20951027    -469.07218887
right  ...       0.41902053    -469.09781015

left   ...       0.00000000    -469.00649879
centre ...       0.20951027    -469.07218887
right  ...       0.41902053    -469.09781015
new    ...       0.44823299    -469.09805643

__s__    ...       0.02921246

 ALPHA AFTER:   0.44823298804849521     
  Cycle:     28 Energy:      -469.098056  Gnorm:      0.389400  CPU:    0.170
 Line minimisation2
 ALPHA BEFORE:   0.44823298804849521     
  ** Opt : line minimisation
left   ...       0.00000000    -469.09805643
centre ...       0.11205825    -469.13176303
right  ...       0.22411649    -469.15556021

left   ...       0.00000000    -469.09805643
centre ...       0.11205825    -469.13176303
right  ...       0.22411649    -469.15556021
new    ...       0.43719191    -469.17504247

__s__    ...       0.21307541

left   ...       0.11205825    -469.13176303
centre ...       0.22411649    -469.15556021
right  ...       0.43719191    -469.17504247
new    ...       0.45356810    -469.17510162

__s__    ...       0.01637619

 ALPHA AFTER:   0.45356809737961762     
  Cycle:     29 Energy:      -469.175102  Gnorm:      0.320012  CPU:    0.176
 Line minimisation2
 ALPHA BEFORE:   0.45356809737961762     
  ** Opt : line minimisation
left   ...       0.00000000    -469.17510162
centre ...       0.11339202    -469.19767689
right  ...       0.22678405    -469.21206505

left   ...       0.00000000    -469.17510162
centre ...       0.11339202    -469.19767689
right  ...       0.22678405    -469.21206505
new    ...       0.36936505    -469.21898250

__s__    ...       0.14258100

 ALPHA AFTER:   0.36936504888198685     
  Cycle:     30 Energy:      -469.218982  Gnorm:      0.286316  CPU:    0.180
 Line minimisation2
 ALPHA BEFORE:   0.36936504888198685     
  ** Opt : line minimisation
left   ...       0.00000000    -469.21898250
centre ...       0.09234126    -469.23456729
right  ...       0.18468252    -469.24693230

left   ...       0.00000000    -469.21898250
centre ...       0.09234126    -469.23456729
right  ...       0.18468252    -469.24693230
new    ...       0.49313179    -469.26296741

__s__    ...       0.30844926

left   ...       0.09234126    -469.23456729
centre ...       0.18468252    -469.24693230
right  ...       0.49313179    -469.26296741
new    ...       0.46607857    -469.26307882

__s__    ...      -0.02705321

 ALPHA AFTER:   0.46607857295942146     
  Cycle:     31 Energy:      -469.263079  Gnorm:      0.257639  CPU:    0.184
 Line minimisation2
 ALPHA BEFORE:   0.46607857295942146     
  ** Opt : line minimisation
left   ...       0.00000000    -469.26307882
centre ...       0.11651964    -469.27937482
right  ...       0.23303929    -469.29281798

left   ...       0.00000000    -469.26307882
centre ...       0.11651964    -469.27937482
right  ...       0.23303929    -469.29281798
new    ...       0.72384184    -469.31592408

__s__    ...       0.49080255

left   ...       0.11651964    -469.27937482
centre ...       0.23303929    -469.29281798
right  ...       0.72384184    -469.31592408
new    ...       0.68776739    -469.31600163

__s__    ...      -0.03607445

 ALPHA AFTER:   0.68776738661225634     
  Cycle:     32 Energy:      -469.316002  Gnorm:      0.187926  CPU:    0.189
 Line minimisation2
 ALPHA BEFORE:   0.68776738661225634     
  ** Opt : line minimisation
left   ...       0.00000000    -469.31600163
centre ...       0.17194185    -469.32872325
right  ...       0.34388369    -469.33923111

left   ...       0.00000000    -469.31600163
centre ...       0.17194185    -469.32872325
right  ...       0.34388369    -469.33923111
new    ...       1.07405813    -469.35569178

__s__    ...       0.73017444

left   ...       0.17194185    -469.32872325
centre ...       0.34388369    -469.33923111
right  ...       1.07405813    -469.35569178
new    ...       0.97261024    -469.35595184

__s__    ...      -0.10144789

 ALPHA AFTER:   0.97261023730644303     
  Cycle:     33 Energy:      -469.355952  Gnorm:      0.222613  CPU:    0.193
 Perform trimming
 Line minimisation2
 ALPHA BEFORE:   0.97261023730644303     
  ** Opt : line minimisation
left   ...       0.00000000    -469.35595184
centre ...       0.24315256    -469.37864478
right  ...       0.48630512    -469.39292640

left   ...       0.00000000    -469.35595184
centre ...       0.24315256    -469.37864478
right  ...       0.48630512    -469.39292640
new    ...       0.77757824    -469.39862104

__s__    ...       0.29127312

 ALPHA AFTER:   0.77757823711284646     
  Cycle:     34 Energy:      -469.398621  Gnorm:      0.310960  CPU:    0.197
 Perform trimming
 Line minimisation2
 ALPHA BEFORE:   0.77757823711284646     
  ** Opt : line minimisation
left   ...       0.00000000    -469.39862104
centre ...       0.19439456    -469.42584973
right  ...       0.38878912    -469.44636967

left   ...       0.00000000    -469.39862104
centre ...       0.19439456    -469.42584973
right  ...       0.38878912    -469.44636967
new    ...       0.88618287    -469.47084142

__s__    ...       0.49739375

left   ...       0.19439456    -469.42584973
centre ...       0.38878912    -469.44636967
right  ...       0.88618287    -469.47084142
new    ...       0.93944693    -469.47075465

__s__    ...       0.05326406

 ALPHA AFTER:   0.88618286804458801     
  Cycle:     35 Energy:      -469.470841  Gnorm:      0.231789  CPU:    0.201
 Line minimisation2
 ALPHA BEFORE:   0.88618286804458801     
  ** Opt : line minimisation
left   ...       0.00000000    -469.47084142
centre ...       0.22154572    -469.49161654
right  ...       0.44309143    -469.49853392

left   ...       0.00000000    -469.47084142
centre ...       0.22154572    -469.49161654
right  ...       0.44309143    -469.49853392
new    ...       0.44290777    -469.49853451

__s__    ...      -0.00018366

 ALPHA AFTER:   0.44290777319140084     
  Cycle:     36 Energy:      -469.498535  Gnorm:      0.246325  CPU:    0.205
 Line minimisation2
 ALPHA BEFORE:   0.44290777319140084     
  ** Opt : line minimisation
left   ...       0.00000000    -469.49853451
centre ...       0.11072694    -469.51214539
right  ...       0.22145389    -469.52283062

left   ...       0.00000000    -469.49853451
centre ...       0.11072694    -469.51214539
right  ...       0.22145389    -469.52283062
new    ...       0.57049314    -469.53860100

__s__    ...       0.34903925

left   ...       0.11072694    -469.51214539
centre ...       0.22145389    -469.52283062
right  ...       0.57049314    -469.53860100
new    ...       0.59836908    -469.53866394

__s__    ...       0.02787594

 ALPHA AFTER:   0.59836907642335480     
  Cycle:     37 Energy:      -469.538664  Gnorm:      0.252156  CPU:    0.209
 Line minimisation2
 ALPHA BEFORE:   0.59836907642335480     
  ** Opt : line minimisation
left   ...       0.00000000    -469.53866394
centre ...       0.14959227    -469.55786660
right  ...       0.29918454    -469.57300601

left   ...       0.00000000    -469.53866394
centre ...       0.14959227    -469.55786660
right  ...       0.29918454    -469.57300601
new    ...       0.78175967    -469.59494375

__s__    ...       0.48257513

left   ...       0.14959227    -469.55786660
centre ...       0.29918454    -469.57300601
right  ...       0.78175967    -469.59494375
new    ...       0.79823785    -469.59496295

__s__    ...       0.01647818

 ALPHA AFTER:   0.79823784923700591     
  Cycle:     38 Energy:      -469.594963  Gnorm:      0.270433  CPU:    0.214
 Line minimisation2
 ALPHA BEFORE:   0.79823784923700591     
  ** Opt : line minimisation
left   ...       0.00000000    -469.59496295
centre ...       0.19955946    -469.62391176
right  ...       0.39911892    -469.64607575

left   ...       0.00000000    -469.59496295
centre ...       0.19955946    -469.62391176
right  ...       0.39911892    -469.64607575
new    ...       0.95123959    -469.67166029

__s__    ...       0.55212067

left   ...       0.19955946    -469.62391176
centre ...       0.39911892    -469.64607575
right  ...       0.95123959    -469.67166029
new    ...       0.94425138    -469.67170639

__s__    ...      -0.00698822

 ALPHA AFTER:   0.94425137775922863     
  Cycle:     39 Energy:      -469.671706  Gnorm:      0.433682  CPU:    0.218
 Line minimisation2
 ALPHA BEFORE:   0.94425137775922863     
  ** Opt : line minimisation
left   ...       0.00000000    -469.67170639
centre ...       0.23606284    -469.70770439
right  ...       0.47212569    -469.61465062

left   ...       0.00000000    -469.67170639
centre ...       0.23606284    -469.70770439
right  ...       0.47212569    -469.61465062
new    ...       0.18387933    -469.71095068

__s__    ...      -0.28824635

left   ...       0.00000000    -469.67170639
centre ...       0.18387933    -469.71095068
right  ...       0.23606284    -469.70770439
new    ...       0.18333193    -469.71095112

__s__    ...      -0.00054740

 ALPHA AFTER:   0.18333193417125571     
  Cycle:     40 Energy:      -469.710951  Gnorm:      0.169405  CPU:    0.223
 Line minimisation2
 ALPHA BEFORE:   0.18333193417125571     
  ** Opt : line minimisation
left   ...       0.00000000    -469.71095112
centre ...       0.04583298    -469.71382320
right  ...       0.09166597    -469.71646677

left   ...       0.00000000    -469.71095112
centre ...       0.04583298    -469.71382320
right  ...       0.09166597    -469.71646677
new    ...       0.59899291    -469.73037292

__s__    ...       0.50732694

left   ...       0.04583298    -469.71382320
centre ...       0.09166597    -469.71646677
right  ...       0.59899291    -469.73037292
new    ...       0.59580135    -469.73037397

__s__    ...      -0.00319156

 ALPHA AFTER:   0.59580134518884365     
  Cycle:     41 Energy:      -469.730374  Gnorm:      0.176255  CPU:    0.227
 Line minimisation2
 ALPHA BEFORE:   0.59580134518884365     
  ** Opt : line minimisation
left   ...       0.00000000    -469.73037397
centre ...       0.14895034    -469.73951632
right  ...       0.29790067    -469.74579488

left   ...       0.00000000    -469.73037397
centre ...       0.14895034    -469.73951632
right  ...       0.29790067    -469.74579488
new    ...       0.54998390    -469.75016150

__s__    ...       0.25208323

left   ...       0.14895034    -469.73951632
centre ...       0.29790067    -469.74579488
right  ...       0.54998390    -469.75016150
new    ...       0.56382911    -469.75015866

__s__    ...       0.01384521

 ALPHA AFTER:   0.54998390204273584     
  Cycle:     42 Energy:      -469.750162  Gnorm:      0.181098  CPU:    0.232
 Line minimisation2
 ALPHA BEFORE:   0.54998390204273584     
  ** Opt : line minimisation
left   ...       0.00000000    -469.75016150
centre ...       0.13749598    -469.75964468
right  ...       0.27499195    -469.76653266

left   ...       0.00000000    -469.75016150
centre ...       0.13749598    -469.75964468
right  ...       0.27499195    -469.76653266
new    ...       0.57117756    -469.77438117

__s__    ...       0.29618561

left   ...       0.13749598    -469.75964468
centre ...       0.27499195    -469.76653266
right  ...       0.57117756    -469.77438117
new    ...       0.66658640    -469.77466792

__s__    ...       0.09540883

 ALPHA AFTER:   0.66658639598822367     
  Cycle:     43 Energy:      -469.774668  Gnorm:      0.178853  CPU:    0.236
 Line minimisation2
 ALPHA BEFORE:   0.66658639598822367     
  ** Opt : line minimisation
left   ...       0.00000000    -469.77466792
centre ...       0.16664660    -469.78548099
right  ...       0.33329320    -469.79518745

left   ...       0.00000000    -469.77466792
centre ...       0.16664660    -469.78548099
right  ...       0.33329320    -469.79518745
new    ...       1.33329320    -469.82575240

__s__    ...       1.00000000

left   ...       0.16664660    -469.78548099
centre ...       0.33329320    -469.79518745
right  ...       1.33329320    -469.82575240
new    ...       1.47739293    -469.82612934

__s__    ...       0.14409973

 ALPHA AFTER:    1.4773929291876122     
  Cycle:     44 Energy:      -469.826129  Gnorm:      0.242421  CPU:    0.240
 Perform trimming
 Line minimisation2
 ALPHA BEFORE:    1.4773929291876122     
  ** Opt : line minimisation
left   ...       0.00000000    -469.82612934
centre ...       0.36934823    -469.85726519
right  ...       0.73869646    -469.86754017

left   ...       0.00000000    -469.82612934
centre ...       0.36934823    -469.85726519
right  ...       0.73869646    -469.86754017
new    ...       0.73594392    -469.86754262

__s__    ...      -0.00275255

 ALPHA AFTER:   0.73594391581416829     
  Cycle:     45 Energy:      -469.867543  Gnorm:      0.298607  CPU:    0.244
 Perform trimming
 Line minimisation2
 ALPHA BEFORE:   0.73594391581416829     
  ** Opt : line minimisation
left   ...       0.00000000    -469.86754262
centre ...       0.18398598    -469.89518162
right  ...       0.36797196    -469.90685567

left   ...       0.00000000    -469.86754262
centre ...       0.18398598    -469.89518162
right  ...       0.36797196    -469.90685567
new    ...       0.41051499    -469.90885196

__s__    ...       0.04254303

 ALPHA AFTER:   0.41051499057401258     
  Cycle:     46 Energy:      -469.908852  Gnorm:      0.245260  CPU:    0.248
 Line minimisation2
 ALPHA BEFORE:   0.41051499057401258     
  ** Opt : line minimisation
left   ...       0.00000000    -469.90885196
centre ...       0.10262875    -469.92225742
right  ...       0.20525750    -469.93454180

left   ...       0.00000000    -469.90885196
centre ...       0.10262875    -469.92225742
right  ...       0.20525750    -469.93454180
new    ...       1.20525750    -469.98346462

__s__    ...       1.00000000

left   ...       0.10262875    -469.92225742
centre ...       0.20525750    -469.93454180
right  ...       1.20525750    -469.98346462
new    ...       1.08635339    -469.98429859

__s__    ...      -0.11890410

 ALPHA AFTER:    1.0863533926823761     
  Cycle:     47 Energy:      -469.984299  Gnorm:      0.241447  CPU:    0.252
 Line minimisation2
 ALPHA BEFORE:    1.0863533926823761     
  ** Opt : line minimisation
left   ...       0.00000000    -469.98429859
centre ...       0.27158835    -470.01157362
right  ...       0.54317670    -470.02153357

left   ...       0.00000000    -469.98429859
centre ...       0.27158835    -470.01157362
right  ...       0.54317670    -470.02153357
new    ...       0.56360500    -470.02151814

__s__    ...       0.02042830

 ALPHA AFTER:   0.54317669634118804     
  Cycle:     48 Energy:      -470.021534  Gnorm:      0.273172  CPU:    0.256
 Line minimisation2
 ALPHA BEFORE:   0.54317669634118804     
  ** Opt : line minimisation
left   ...       0.00000000    -470.02153357
centre ...       0.13579417    -470.04189870
right  ...       0.27158835    -470.05560057

left   ...       0.00000000    -470.02153357
centre ...       0.13579417    -470.04189870
right  ...       0.27158835    -470.05560057
new    ...       0.48292915    -470.06338311

__s__    ...       0.21134080

 ALPHA AFTER:   0.48292914904924505     
  Cycle:     49 Energy:      -470.063383  Gnorm:      0.220826  CPU:    0.259
 Line minimisation2
 ALPHA BEFORE:   0.48292914904924505     
  ** Opt : line minimisation
left   ...       0.00000000    -470.06338311
centre ...       0.12073229    -470.07474395
right  ...       0.24146457    -470.08138570

left   ...       0.00000000    -470.06338311
centre ...       0.12073229    -470.07474395
right  ...       0.24146457    -470.08138570
new    ...       0.35101986    -470.08353512

__s__    ...       0.10955528

 ALPHA AFTER:   0.35101985933125129     
  Cycle:     50 Energy:      -470.083535  Gnorm:      0.212128  CPU:    0.263
 Line minimisation2
 ALPHA BEFORE:   0.35101985933125129     
  ** Opt : line minimisation
left   ...       0.00000000    -470.08353512
centre ...       0.08775496    -470.09195646
right  ...       0.17550993    -470.09863783

left   ...       0.00000000    -470.08353512
centre ...       0.08775496    -470.09195646
right  ...       0.17550993    -470.09863783
new    ...       0.46860696    -470.11027490

__s__    ...       0.29309703

left   ...       0.08775496    -470.09195646
centre ...       0.17550993    -470.09863783
right  ...       0.46860696    -470.11027490
new    ...       0.52958078    -470.11046636

__s__    ...       0.06097382

 ALPHA AFTER:   0.52958077881245547     
  Cycle:     51 Energy:      -470.110466  Gnorm:      0.179519  CPU:    0.268
 Line minimisation2
 ALPHA BEFORE:   0.52958077881245547     
  ** Opt : line minimisation
left   ...       0.00000000    -470.11046636
centre ...       0.13239519    -470.11913927
right  ...       0.26479039    -470.12583413

left   ...       0.00000000    -470.11046636
centre ...       0.13239519    -470.11913927
right  ...       0.26479039    -470.12583413
new    ...       0.64669528    -470.13556359

__s__    ...       0.38190489

left   ...       0.13239519    -470.11913927
centre ...       0.26479039    -470.12583413
right  ...       0.64669528    -470.13556359
new    ...       0.71683911    -470.13567429

__s__    ...       0.07014384

 ALPHA AFTER:   0.71683911482548612     
  Cycle:     52 Energy:      -470.135674  Gnorm:      0.132128  CPU:    0.272
 Line minimisation2
 ALPHA BEFORE:   0.71683911482548612     
  ** Opt : line minimisation
left   ...       0.00000000    -470.13567429
centre ...       0.17920978    -470.14146328
right  ...       0.35841956    -470.14540858

left   ...       0.00000000    -470.13567429
centre ...       0.17920978    -470.14146328
right  ...       0.35841956    -470.14540858
new    ...       0.65230686    -470.14831105

__s__    ...       0.29388730

left   ...       0.17920978    -470.14146328
centre ...       0.35841956    -470.14540858
right  ...       0.65230686    -470.14831105
new    ...       0.69781818    -470.14828601

__s__    ...       0.04551132

 ALPHA AFTER:   0.65230686149569472     
  Cycle:     53 Energy:      -470.148311  Gnorm:      0.135533  CPU:    0.277
 Line minimisation2
 ALPHA BEFORE:   0.65230686149569472     
  ** Opt : line minimisation
left   ...       0.00000000    -470.14831105
centre ...       0.16307672    -470.15385466
right  ...       0.32615343    -470.15658672

left   ...       0.00000000    -470.14831105
centre ...       0.16307672    -470.15385466
right  ...       0.32615343    -470.15658672
new    ...       0.40308082    -470.15690227

__s__    ...       0.07692739

 ALPHA AFTER:   0.40308081646957589     
  Cycle:     54 Energy:      -470.156902  Gnorm:      0.130458  CPU:    0.281
 Line minimisation2
 ALPHA BEFORE:   0.40308081646957589     
  ** Opt : line minimisation
left   ...       0.00000000    -470.15690227
centre ...       0.10077020    -470.16035704
right  ...       0.20154041    -470.16338938

left   ...       0.00000000    -470.15690227
centre ...       0.10077020    -470.16035704
right  ...       0.20154041    -470.16338938
new    ...       0.87450113    -470.16864909

__s__    ...       0.67296072

left   ...       0.10077020    -470.16035704
centre ...       0.20154041    -470.16338938
right  ...       0.87450113    -470.16864909
new    ...       0.67375802    -470.16975984

__s__    ...      -0.20074311

 ALPHA AFTER:   0.67375801792421308     
  Cycle:     55 Energy:      -470.169760  Gnorm:      0.113896  CPU:    0.285
 Line minimisation2
 ALPHA BEFORE:   0.67375801792421308     
  ** Opt : line minimisation
left   ...       0.00000000    -470.16975984
centre ...       0.16843950    -470.17400414
right  ...       0.33687901    -470.17656151

left   ...       0.00000000    -470.16975984
centre ...       0.16843950    -470.17400414
right  ...       0.33687901    -470.17656151
new    ...       0.50801032    -470.17776756

__s__    ...       0.17113131

 ALPHA AFTER:   0.50801031954614273     
  Cycle:     56 Energy:      -470.177768  Gnorm:      0.097772  CPU:    0.289
 Line minimisation2
 ALPHA BEFORE:   0.50801031954614273     
  ** Opt : line minimisation
left   ...       0.00000000    -470.17776756
centre ...       0.12700258    -470.18039523
right  ...       0.25400516    -470.18234436

left   ...       0.00000000    -470.17776756
centre ...       0.12700258    -470.18039523
right  ...       0.25400516    -470.18234436
new    ...       0.55532085    -470.18390257

__s__    ...       0.30131569

left   ...       0.12700258    -470.18039523
centre ...       0.25400516    -470.18234436
right  ...       0.55532085    -470.18390257
new    ...       0.51349841    -470.18386626

__s__    ...      -0.04182244

 ALPHA AFTER:   0.55532084874696064     
  Cycle:     57 Energy:      -470.183903  Gnorm:      0.107344  CPU:    0.293
 Line minimisation2
 ALPHA BEFORE:   0.55532084874696064     
  ** Opt : line minimisation
left   ...       0.00000000    -470.18390257
centre ...       0.13883021    -470.18721018
right  ...       0.27766042    -470.18987352

left   ...       0.00000000    -470.18390257
centre ...       0.13883021    -470.18721018
right  ...       0.27766042    -470.18987352
new    ...       0.78215743    -470.19363137

__s__    ...       0.50449700

left   ...       0.13883021    -470.18721018
centre ...       0.27766042    -470.18987352
right  ...       0.78215743    -470.19363137
new    ...       0.73407421    -470.19379089

__s__    ...      -0.04808322

 ALPHA AFTER:   0.73407421035402232     
  Cycle:     58 Energy:      -470.193791  Gnorm:      0.110380  CPU:    0.298
 Line minimisation2
 ALPHA BEFORE:   0.73407421035402232     
  ** Opt : line minimisation
left   ...       0.00000000    -470.19379089
centre ...       0.18351855    -470.19856603
right  ...       0.36703711    -470.20177235

left   ...       0.00000000    -470.19379089
centre ...       0.18351855    -470.19856603
right  ...       0.36703711    -470.20177235
new    ...       0.65035164    -470.20419351

__s__    ...       0.28331454

left   ...       0.18351855    -470.19856603
centre ...       0.36703711    -470.20177235
right  ...       0.65035164    -470.20419351
new    ...       0.73218127    -470.20422445

__s__    ...       0.08182963

 ALPHA AFTER:   0.73218127318146486     
  Cycle:     59 Energy:      -470.204224  Gnorm:      0.172245  CPU:    0.302
 Line minimisation2
 ALPHA BEFORE:   0.73218127318146486     
  ** Opt : line minimisation
left   ...       0.00000000    -470.20422445
centre ...       0.18304532    -470.21085030
right  ...       0.36609064    -470.20587563

left   ...       0.00000000    -470.20422445
centre ...       0.18304532    -470.21085030
right  ...       0.36609064    -470.20587563
new    ...       0.19607240    -470.21087974

__s__    ...      -0.17001824

 ALPHA AFTER:   0.19607239677733787     
  Cycle:     60 Energy:      -470.210880  Gnorm:      0.089017  CPU:    0.306
 Line minimisation2
 ALPHA BEFORE:   0.19607239677733787     
  ** Opt : line minimisation
left   ...       0.00000000    -470.21087974
centre ...       0.04901810    -470.21173192
right  ...       0.09803620    -470.21252234

left   ...       0.00000000    -470.21087974
centre ...       0.04901810    -470.21173192
right  ...       0.09803620    -470.21252234
new    ...       0.70081333    -470.21722489

__s__    ...       0.60277713

left   ...       0.04901810    -470.21173192
centre ...       0.09803620    -470.21252234
right  ...       0.70081333    -470.21722489
new    ...       0.70488408    -470.21722457

__s__    ...       0.00407075

 ALPHA AFTER:   0.70081332803114005     
  Cycle:     61 Energy:      -470.217225  Gnorm:      0.085830  CPU:    0.310
 Line minimisation2
 ALPHA BEFORE:   0.70081332803114005     
  ** Opt : line minimisation
left   ...       0.00000000    -470.21722489
centre ...       0.17520333    -470.21940624
right  ...       0.35040666    -470.22049843

left   ...       0.00000000    -470.21722489
centre ...       0.17520333    -470.21940624
right  ...       0.35040666    -470.22049843
new    ...       0.43849719    -470.22058510

__s__    ...       0.08809053

 ALPHA AFTER:   0.43849719416449240     
  Cycle:     62 Energy:      -470.220585  Gnorm:      0.082582  CPU:    0.314
 Line minimisation2
 ALPHA BEFORE:   0.43849719416449240     
  ** Opt : line minimisation
left   ...       0.00000000    -470.22058510
centre ...       0.10962430    -470.22192582
right  ...       0.21924860    -470.22323322

left   ...       0.00000000    -470.22058510
centre ...       0.10962430    -470.22192582
right  ...       0.21924860    -470.22323322
new    ...       1.21924860    -470.22558332

__s__    ...       1.00000000

left   ...       0.10962430    -470.22192582
centre ...       0.21924860    -470.22323322
right  ...       1.21924860    -470.22558332
new    ...       0.85540630    -470.22672005

__s__    ...      -0.36384229

 ALPHA AFTER:   0.85540630422699770     
  Cycle:     63 Energy:      -470.226720  Gnorm:      0.102833  CPU:    0.318
 Perform trimming
 Line minimisation2
 ALPHA BEFORE:   0.85540630422699770     
  ** Opt : line minimisation
left   ...       0.00000000    -470.22672005
centre ...       0.21385158    -470.23128614
right  ...       0.42770315    -470.23506972

left   ...       0.00000000    -470.22672005
centre ...       0.21385158    -470.23128614
right  ...       0.42770315    -470.23506972
new    ...       1.35478615    -470.24546134

__s__    ...       0.92708299

left   ...       0.21385158    -470.23128614
centre ...       0.42770315    -470.23506972
right  ...       1.35478615    -470.24546134
new    ...       1.87747602    -470.24634334

__s__    ...       0.52268987

 ALPHA AFTER:    1.8774760185141692     
  Cycle:     64 Energy:      -470.246343  Gnorm:      0.168383  CPU:    0.323
 Perform trimming
 Line minimisation2
 ALPHA BEFORE:    1.8774760185141692     
  ** Opt : line minimisation
left   ...       0.00000000    -470.24634334
centre ...       0.46936900    -470.25804897
right  ...       0.93873801    -470.26553539

left   ...       0.00000000    -470.24634334
centre ...       0.46936900    -470.25804897
right  ...       0.93873801    -470.26553539
new    ...       1.53688476    -470.26919171

__s__    ...       0.59814675

 ALPHA AFTER:    1.5368847618935659     
  Cycle:     65 Energy:      -470.269192  Gnorm:      0.202812  CPU:    0.326
 Perform trimming
 Line minimisation2
 ALPHA BEFORE:    1.5368847618935659     
  ** Opt : line minimisation
left   ...       0.00000000    -470.26919171
centre ...       0.38422119    -470.29235458
right  ...       0.76844238    -470.28993510

left   ...       0.00000000    -470.26919171
centre ...       0.38422119    -470.29235458
right  ...       0.76844238    -470.28993510
new    ...       0.53999360    -470.29461861

__s__    ...      -0.22844878

 ALPHA AFTER:   0.53999359814472336     
  Cycle:     66 Energy:      -470.294619  Gnorm:      0.255847  CPU:    0.330
 Perform trimming
 Line minimisation2
 ALPHA BEFORE:   0.53999359814472336     
  ** Opt : line minimisation
left   ...       0.00000000    -470.29461861
centre ...       0.13499840    -470.30984482
right  ...       0.26999680    -470.32257471

left   ...       0.00000000    -470.29461861
centre ...       0.13499840    -470.30984482
right  ...       0.26999680    -470.32257471
new    ...       0.89091649    -470.35166125

__s__    ...       0.62091969

left   ...       0.13499840    -470.30984482
centre ...       0.26999680    -470.32257471
right  ...       0.89091649    -470.35166125
new    ...       0.95357289    -470.35154297

__s__    ...       0.06265640

 ALPHA AFTER:   0.89091649137694207     
  Cycle:     67 Energy:      -470.351661  Gnorm:      0.292654  CPU:    0.335
 Line minimisation2
 ALPHA BEFORE:   0.89091649137694207     
  ** Opt : line minimisation
left   ...       0.00000000    -470.35166125
centre ...       0.22272912    -470.38622831
right  ...       0.44545825    -470.39908004

left   ...       0.00000000    -470.35166125
centre ...       0.22272912    -470.38622831
right  ...       0.44545825    -470.39908004
new    ...       0.46591087    -470.39914087

__s__    ...       0.02045262

 ALPHA AFTER:   0.46591086560487971     
  Cycle:     68 Energy:      -470.399141  Gnorm:      0.312809  CPU:    0.338
 Line minimisation2
 ALPHA BEFORE:   0.46591086560487971     
  ** Opt : line minimisation
left   ...       0.00000000    -470.39914087
centre ...       0.11647772    -470.42184066
right  ...       0.23295543    -470.43820905

left   ...       0.00000000    -470.39914087
centre ...       0.11647772    -470.42184066
right  ...       0.23295543    -470.43820905
new    ...       0.47584304    -470.45137617

__s__    ...       0.24288761

left   ...       0.11647772    -470.42184066
centre ...       0.23295543    -470.43820905
right  ...       0.47584304    -470.45137617
new    ...       0.46724711    -470.45138791

__s__    ...      -0.00859593

 ALPHA AFTER:   0.46724711204659219     
  Cycle:     69 Energy:      -470.451388  Gnorm:      0.236515  CPU:    0.343
 Line minimisation2
 ALPHA BEFORE:   0.46724711204659219     
  ** Opt : line minimisation
left   ...       0.00000000    -470.45138791
centre ...       0.11681178    -470.46440399
right  ...       0.23362356    -470.47374666

left   ...       0.00000000    -470.45138791
centre ...       0.11681178    -470.46440399
right  ...       0.23362356    -470.47374666
new    ...       0.47230745    -470.48147357

__s__    ...       0.23868390

left   ...       0.11681178    -470.46440399
centre ...       0.23362356    -470.47374666
right  ...       0.47230745    -470.48147357
new    ...       0.47383344    -470.48147426

__s__    ...       0.00152599

 ALPHA AFTER:   0.47383343898454877     
  Cycle:     70 Energy:      -470.481474  Gnorm:      0.149682  CPU:    0.347
 Line minimisation2
 ALPHA BEFORE:   0.47383343898454877     
  ** Opt : line minimisation
left   ...       0.00000000    -470.48147426
centre ...       0.11845836    -470.48685185
right  ...       0.23691672    -470.49144842

left   ...       0.00000000    -470.48147426
centre ...       0.11845836    -470.48685185
right  ...       0.23691672    -470.49144842
new    ...       0.87483942    -470.49980241

__s__    ...       0.63792270

left   ...       0.11845836    -470.48685185
centre ...       0.23691672    -470.49144842
right  ...       0.87483942    -470.49980241
new    ...       0.74853126    -470.50022302

__s__    ...      -0.12630816

 ALPHA AFTER:   0.74853125785660701     
  Cycle:     71 Energy:      -470.500223  Gnorm:      0.199482  CPU:    0.352
 Perform trimming
 Line minimisation2
 ALPHA BEFORE:   0.74853125785660701     
  ** Opt : line minimisation
left   ...       0.00000000    -470.50022302
centre ...       0.18713281    -470.51068634
right  ...       0.37426563    -470.51700340

left   ...       0.00000000    -470.50022302
centre ...       0.18713281    -470.51068634
right  ...       0.37426563    -470.51700340
new    ...       0.56580731    -470.51899179

__s__    ...       0.19154168

 ALPHA AFTER:   0.56580731115432759     
  Cycle:     72 Energy:      -470.518992  Gnorm:      0.187107  CPU:    0.356
 Line minimisation2
 ALPHA BEFORE:   0.56580731115432759     
  ** Opt : line minimisation
left   ...       0.00000000    -470.51899179
centre ...       0.14145183    -470.52856022
right  ...       0.28290366    -470.53478548

left   ...       0.00000000    -470.51899179
centre ...       0.14145183    -470.52856022
right  ...       0.28290366    -470.53478548
new    ...       0.47557364    -470.53793894

__s__    ...       0.19266999

 ALPHA AFTER:   0.47557364436126021     
  Cycle:     73 Energy:      -470.537939  Gnorm:      0.163240  CPU:    0.359
 Line minimisation2
 ALPHA BEFORE:   0.47557364436126021     
  ** Opt : line minimisation
left   ...       0.00000000    -470.53793894
centre ...       0.11889341    -470.54451091
right  ...       0.23778682    -470.54969913

left   ...       0.00000000    -470.53793894
centre ...       0.11889341    -470.54451091
right  ...       0.23778682    -470.54969913
new    ...       0.62411871    -470.55681496

__s__    ...       0.38633189

left   ...       0.11889341    -470.54451091
centre ...       0.23778682    -470.54969913
right  ...       0.62411871    -470.55681496
new    ...       0.61545360    -470.55681758

__s__    ...      -0.00866511

 ALPHA AFTER:   0.61545360245408731     
  Cycle:     74 Energy:      -470.556818  Gnorm:      0.196719  CPU:    0.364
 Perform trimming
 Line minimisation2
 ALPHA BEFORE:   0.61545360245408731     
  ** Opt : line minimisation
left   ...       0.00000000    -470.55681758
centre ...       0.15386340    -470.56823974
right  ...       0.30772680    -470.57554118

left   ...       0.00000000    -470.55681758
centre ...       0.15386340    -470.56823974
right  ...       0.30772680    -470.57554118
new    ...       0.50342313    -470.58002663

__s__    ...       0.19569633

 ALPHA AFTER:   0.50342313077231082     
  Cycle:     75 Energy:      -470.580027  Gnorm:      0.132005  CPU:    0.367
 Line minimisation2
 ALPHA BEFORE:   0.50342313077231082     
  ** Opt : line minimisation
left   ...       0.00000000    -470.58002663
centre ...       0.12585578    -470.58527803
right  ...       0.25171157    -470.58945902

left   ...       0.00000000    -470.58002663
centre ...       0.12585578    -470.58527803
right  ...       0.25171157    -470.58945902
new    ...       0.68037083    -470.59835126

__s__    ...       0.42865926

left   ...       0.12585578    -470.58527803
centre ...       0.25171157    -470.58945902
right  ...       0.68037083    -470.59835126
new    ...       0.92704067    -470.59948008

__s__    ...       0.24666985

 ALPHA AFTER:   0.92704067477292296     
  Cycle:     76 Energy:      -470.599480  Gnorm:      0.197430  CPU:    0.372
 Perform trimming
 Line minimisation2
 ALPHA BEFORE:   0.92704067477292296     
  ** Opt : line minimisation
left   ...       0.00000000    -470.59948008
centre ...       0.23176017    -470.60856304
right  ...       0.46352034    -470.61190553

left   ...       0.00000000    -470.59948008
centre ...       0.23176017    -470.60856304
right  ...       0.46352034    -470.61190553
new    ...       0.48258680    -470.61192677

__s__    ...       0.01906646

 ALPHA AFTER:   0.48258679598800119     
  Cycle:     77 Energy:      -470.611927  Gnorm:      0.140315  CPU:    0.375
 Line minimisation2
 ALPHA BEFORE:   0.48258679598800119     
  ** Opt : line minimisation
left   ...       0.00000000    -470.61192677
centre ...       0.12064670    -470.61689412
right  ...       0.24129340    -470.62105869

left   ...       0.00000000    -470.61192677
centre ...       0.12064670    -470.61689412
right  ...       0.24129340    -470.62105869
new    ...       0.80684060    -470.62672494

__s__    ...       0.56554720

left   ...       0.12064670    -470.61689412
centre ...       0.24129340    -470.62105869
right  ...       0.80684060    -470.62672494
new    ...       0.66437536    -470.62724253

__s__    ...      -0.14246524

 ALPHA AFTER:   0.66437535884326360     
  Cycle:     78 Energy:      -470.627243  Gnorm:      0.138286  CPU:    0.380
 Line minimisation2
 ALPHA BEFORE:   0.66437535884326360     
  ** Opt : line minimisation
left   ...       0.00000000    -470.62724253
centre ...       0.16609384    -470.63331366
right  ...       0.33218768    -470.63684795

left   ...       0.00000000    -470.62724253
centre ...       0.16609384    -470.63331366
right  ...       0.33218768    -470.63684795
new    ...       0.48053997    -470.63767300

__s__    ...       0.14835229

 ALPHA AFTER:   0.48053997157904671     
  Cycle:     79 Energy:      -470.637673  Gnorm:      0.179408  CPU:    0.384
 Line minimisation2
 ALPHA BEFORE:   0.48053997157904671     
  ** Opt : line minimisation
left   ...       0.00000000    -470.63767300
centre ...       0.12013499    -470.64415252
right  ...       0.24026999    -470.64560380

left   ...       0.00000000    -470.63767300
centre ...       0.12013499    -470.64415252
right  ...       0.24026999    -470.64560380
new    ...       0.21487648    -470.64573852

__s__    ...      -0.02539351

 ALPHA AFTER:   0.21487647793940337     
  Cycle:     80 Energy:      -470.645739  Gnorm:      0.120622  CPU:    0.388
 Line minimisation2
 ALPHA BEFORE:   0.21487647793940337     
  ** Opt : line minimisation
left   ...       0.00000000    -470.64573852
centre ...       0.05371912    -470.64739250
right  ...       0.10743824    -470.64882971

left   ...       0.00000000    -470.64573852
centre ...       0.05371912    -470.64739250
right  ...       0.10743824    -470.64882971
new    ...       0.43673567    -470.65347939

__s__    ...       0.32929743

left   ...       0.05371912    -470.64739250
centre ...       0.10743824    -470.64882971
right  ...       0.43673567    -470.65347939
new    ...       0.48611899    -470.65350488

__s__    ...       0.04938333

 ALPHA AFTER:   0.48611899482926579     
  Cycle:     81 Energy:      -470.653505  Gnorm:      0.096498  CPU:    0.392
 Line minimisation2
 ALPHA BEFORE:   0.48611899482926579     
  ** Opt : line minimisation
left   ...       0.00000000    -470.65350488
centre ...       0.12152975    -470.65591878
right  ...       0.24305950    -470.65827780

left   ...       0.00000000    -470.65350488
centre ...       0.12152975    -470.65591878
right  ...       0.24305950    -470.65827780
new    ...       1.24305950    -470.66848812

__s__    ...       1.00000000

left   ...       0.12152975    -470.65591878
centre ...       0.24305950    -470.65827780
right  ...       1.24305950    -470.66848812
new    ...       1.36535332    -470.66873020

__s__    ...       0.12229382

 ALPHA AFTER:    1.3653533179510560     
  Cycle:     82 Energy:      -470.668730  Gnorm:      0.206879  CPU:    0.397
 Perform trimming
 Line minimisation2
 ALPHA BEFORE:    1.3653533179510560     
  ** Opt : line minimisation
left   ...       0.00000000    -470.66873020
centre ...       0.34133833    -470.67917967
right  ...       0.68267666    -470.68814426

left   ...       0.00000000    -470.66873020
centre ...       0.34133833    -470.67917967
right  ...       0.68267666    -470.68814426
new    ...       1.68267666    -470.70596005

__s__    ...       1.00000000

left   ...       0.34133833    -470.67917967
centre ...       0.68267666    -470.68814426
right  ...       1.68267666    -470.70596005
new    ...       2.59715734    -470.71190621

__s__    ...       0.91448069

 ALPHA AFTER:    2.5971573445799567     
  Cycle:     83 Energy:      -470.711906  Gnorm:      0.240424  CPU:    0.401
 Perform trimming
 Line minimisation2
 ALPHA BEFORE:    2.5971573445799567     
  ** Opt : line minimisation
left   ...       0.00000000    -470.71190621
centre ...       0.64928934    -470.73441805
right  ...       1.29857867    -470.67787156

left   ...       0.00000000    -470.71190621
centre ...       0.64928934    -470.73441805
right  ...       1.29857867    -470.67787156
new    ...       0.50952964    -470.73632419

__s__    ...      -0.78904903

left   ...       0.00000000    -470.71190621
centre ...       0.50952964    -470.73632419
right  ...       0.64928934    -470.73441805
new    ...       0.50748565    -470.73632499

__s__    ...      -0.00204399

 ALPHA AFTER:   0.50748565252568278     
  Cycle:     84 Energy:      -470.736325  Gnorm:      0.219816  CPU:    0.406
 Line minimisation2
 ALPHA BEFORE:   0.50748565252568278     
  ** Opt : line minimisation
left   ...       0.00000000    -470.73632499
centre ...       0.12687141    -470.74861729
right  ...       0.25374283    -470.75747629

left   ...       0.00000000    -470.73632499
centre ...       0.12687141    -470.74861729
right  ...       0.25374283    -470.75747629
new    ...       0.51767632    -470.76488383

__s__    ...       0.26393349

left   ...       0.12687141    -470.74861729
centre ...       0.25374283    -470.75747629
right  ...       0.51767632    -470.76488383
new    ...       0.51703263    -470.76488315

__s__    ...      -0.00064369

 ALPHA AFTER:   0.51767631983539941     
  Cycle:     85 Energy:      -470.764884  Gnorm:      0.259711  CPU:    0.410
 Perform trimming
 Line minimisation2
 ALPHA BEFORE:   0.51767631983539941     
  ** Opt : line minimisation
left   ...       0.00000000    -470.76488383
centre ...       0.12941908    -470.78015793
right  ...       0.25883816    -470.79370857

left   ...       0.00000000    -470.76488383
centre ...       0.12941908    -470.78015793
right  ...       0.25883816    -470.79370857
new    ...       1.21168312    -470.83561905

__s__    ...       0.95284496

left   ...       0.12941908    -470.78015793
centre ...       0.25883816    -470.79370857
right  ...       1.21168312    -470.83561905
new    ...       1.12725415    -470.83617995

__s__    ...      -0.08442897

 ALPHA AFTER:    1.1272541527167026     
  Cycle:     86 Energy:      -470.836180  Gnorm:      0.437953  CPU:    0.415
 Perform trimming
 Line minimisation2
 ALPHA BEFORE:    1.1272541527167026     
  ** Opt : line minimisation
left   ...       0.00000000    -470.83617995
centre ...       0.28181354    -470.89388626
right  ...       0.56362708    -470.94653057

left   ...       0.00000000    -470.83617995
centre ...       0.28181354    -470.89388626
right  ...       0.56362708    -470.94653057
new    ...       1.56362708    -471.07257984

__s__    ...       1.00000000

left   ...       0.28181354    -470.89388626
centre ...       0.56362708    -470.94653057
right  ...       1.56362708    -471.07257984
new    ...       2.39329961    -471.00800684

__s__    ...       0.82967253

left   ...       0.56362708    -470.94653057
centre ...       1.56362708    -471.07257984
right  ...       2.39329961    -471.00800684
new    ...       1.62923009    -471.07562006

__s__    ...      -0.76406952

left   ...       1.56362708    -471.07257984
centre ...       1.62923009    -471.07562006
right  ...       2.39329961    -471.00800684
new    ...       1.73900918    -471.07840855

__s__    ...       0.10977908

 ALPHA AFTER:    1.7390091751658081     
  Cycle:     87 Energy:      -471.078409  Gnorm:      0.712980  CPU:    0.421
 Perform trimming
 Line minimisation2
 ALPHA BEFORE:    1.7390091751658081     
  ** Opt : line minimisation
left   ...       0.00000000    -471.07840855
centre ...       0.43475229    -471.26415596
right  ...       0.86950459    -471.16461357

left   ...       0.00000000    -471.07840855
centre ...       0.43475229    -471.26415596
right  ...       0.86950459    -471.16461357
new    ...       0.50043609    -471.27183377

__s__    ...      -0.36906850

left   ...       0.43475229    -471.26415596
centre ...       0.50043609    -471.27183377
right  ...       0.86950459    -471.16461357
new    ...       0.52996242    -471.27282027

__s__    ...       0.02952634

 ALPHA AFTER:   0.52996242263187687     
  Cycle:     88 Energy:      -471.272820  Gnorm:      0.478398  CPU:    0.426
 Line minimisation2
 ALPHA BEFORE:   0.52996242263187687     
  ** Opt : line minimisation
left   ...       0.00000000    -471.27282027
centre ...       0.13249061    -471.33563821
right  ...       0.26498121    -471.38361772

left   ...       0.00000000    -471.27282027
centre ...       0.13249061    -471.33563821
right  ...       0.26498121    -471.38361772
new    ...       0.62713959    -471.43985752

__s__    ...       0.36215837

left   ...       0.13249061    -471.33563821
centre ...       0.26498121    -471.38361772
right  ...       0.62713959    -471.43985752
new    ...       0.63174171    -471.43986242

__s__    ...       0.00460212

 ALPHA AFTER:   0.63174170625996817     
  Cycle:     89 Energy:      -471.439862  Gnorm:      0.636328  CPU:    0.431
 Line minimisation2
 ALPHA BEFORE:   0.63174170625996817     
  ** Opt : line minimisation
left   ...       0.00000000    -471.43986242
centre ...       0.15793543    -471.52740858
right  ...       0.31587085    -471.48834086

left   ...       0.00000000    -471.43986242
centre ...       0.15793543    -471.52740858
right  ...       0.31587085    -471.48834086
new    ...       0.18817090    -471.52976102

__s__    ...      -0.12769995

left   ...       0.15793543    -471.52740858
centre ...       0.18817090    -471.52976102
right  ...       0.31587085    -471.48834086
new    ...       0.18833072    -471.52976122

__s__    ...       0.00015982

 ALPHA AFTER:   0.18833072115973259     
  Cycle:     90 Energy:      -471.529761  Gnorm:      0.303014  CPU:    0.435
 Line minimisation2
 ALPHA BEFORE:   0.18833072115973259     
  ** Opt : line minimisation
left   ...       0.00000000    -471.52976122
centre ...       0.04708268    -471.53951858
right  ...       0.09416536    -471.54885621

left   ...       0.00000000    -471.52976122
centre ...       0.04708268    -471.53951858
right  ...       0.09416536    -471.54885621
new    ...       1.09416536    -471.64665321

__s__    ...       1.00000000

left   ...       0.04708268    -471.53951858
centre ...       0.09416536    -471.54885621
right  ...       1.09416536    -471.64665321
new    ...       1.10348908    -471.64662936

__s__    ...       0.00932372

 ALPHA AFTER:    1.0941653605798662     
  Cycle:     91 Energy:      -471.646653  Gnorm:      0.327981  CPU:    0.440
 Perform trimming
 Line minimisation2
 ALPHA BEFORE:    1.0941653605798662     
  ** Opt : line minimisation
left   ...       0.00000000    -471.64665321
centre ...       0.27354134    -471.69647699
right  ...       0.54708268    -471.71363272

left   ...       0.00000000    -471.64665321
centre ...       0.27354134    -471.69647699
right  ...       0.54708268    -471.71363272
new    ...       0.55396314    -471.71364373

__s__    ...       0.00688046

 ALPHA AFTER:   0.55396314337129360     
  Cycle:     92 Energy:      -471.713644  Gnorm:      0.189628  CPU:    0.444
 Line minimisation2
 ALPHA BEFORE:   0.55396314337129360     
  ** Opt : line minimisation
left   ...       0.00000000    -471.71364373
centre ...       0.13849079    -471.72442139
right  ...       0.27698157    -471.73419538

left   ...       0.00000000    -471.71364373
centre ...       0.13849079    -471.72442139
right  ...       0.27698157    -471.73419538
new    ...       1.27698157    -471.77484230

__s__    ...       1.00000000

left   ...       0.13849079    -471.72442139
centre ...       0.27698157    -471.73419538
right  ...       1.27698157    -471.77484230
new    ...       1.55010415    -471.77694611

__s__    ...       0.27312257

 ALPHA AFTER:    1.5501041456981723     
  Cycle:     93 Energy:      -471.776946  Gnorm:      0.337013  CPU:    0.448
 Perform trimming
 Line minimisation2
 ALPHA BEFORE:    1.5501041456981723     
  ** Opt : line minimisation
left   ...       0.00000000    -471.77694611
centre ...       0.38752604    -471.81422679
right  ...       0.77505207    -471.83772511

left   ...       0.00000000    -471.77694611
centre ...       0.38752604    -471.81422679
right  ...       0.77505207    -471.83772511
new    ...       1.24200402    -471.84751704

__s__    ...       0.46695195

 ALPHA AFTER:    1.2420040200851825     
  Cycle:     94 Energy:      -471.847517  Gnorm:      0.349316  CPU:    0.452
 Line minimisation2
 ALPHA BEFORE:    1.2420040200851825     
  ** Opt : line minimisation
left   ...       0.00000000    -471.84751704
centre ...       0.31050101    -471.89147935
right  ...       0.62100201    -471.85167636

left   ...       0.00000000    -471.84751704
centre ...       0.31050101    -471.89147935
right  ...       0.62100201    -471.85167636
new    ...       0.31820988    -471.89150797

__s__    ...      -0.30279213

left   ...       0.31050101    -471.89147935
centre ...       0.31820988    -471.89150797
right  ...       0.62100201    -471.85167636
new    ...       0.31861721    -471.89150804

__s__    ...       0.00040733

 ALPHA AFTER:   0.31861720878061683     
  Cycle:     95 Energy:      -471.891508  Gnorm:      0.210125  CPU:    0.457
 Line minimisation2
 ALPHA BEFORE:   0.31861720878061683     
  ** Opt : line minimisation
left   ...       0.00000000    -471.89150804
centre ...       0.07965430    -471.89907011
right  ...       0.15930860    -471.90545408

left   ...       0.00000000    -471.89150804
centre ...       0.07965430    -471.89907011
right  ...       0.15930860    -471.90545408
new    ...       0.55112346    -471.92248873

__s__    ...       0.39181486

left   ...       0.07965430    -471.89907011
centre ...       0.15930860    -471.90545408
right  ...       0.55112346    -471.92248873
new    ...       0.63470643    -471.92279466

__s__    ...       0.08358297

 ALPHA AFTER:   0.63470642955056478     
  Cycle:     96 Energy:      -471.922795  Gnorm:      0.211553  CPU:    0.462
 Line minimisation2
 ALPHA BEFORE:   0.63470642955056478     
  ** Opt : line minimisation
left   ...       0.00000000    -471.92279466
centre ...       0.15867661    -471.93715075
right  ...       0.31735321    -471.94839447

left   ...       0.00000000    -471.92279466
centre ...       0.15867661    -471.93715075
right  ...       0.31735321    -471.94839447
new    ...       0.81124710    -471.96316055

__s__    ...       0.49389388

left   ...       0.15867661    -471.93715075
centre ...       0.31735321    -471.94839447
right  ...       0.81124710    -471.96316055
new    ...       0.80244863    -471.96317500

__s__    ...      -0.00879847

 ALPHA AFTER:   0.80244862668064354     
  Cycle:     97 Energy:      -471.963175  Gnorm:      0.229242  CPU:    0.466
 Line minimisation2
 ALPHA BEFORE:   0.80244862668064354     
  ** Opt : line minimisation
left   ...       0.00000000    -471.96317500
centre ...       0.20061216    -471.98325620
right  ...       0.40122431    -471.99646646

left   ...       0.00000000    -471.96317500
centre ...       0.20061216    -471.98325620
right  ...       0.40122431    -471.99646646
new    ...       0.68662010    -472.00332864

__s__    ...       0.28539578

 ALPHA AFTER:   0.68662009791030709     
  Cycle:     98 Energy:      -472.003329  Gnorm:      0.332528  CPU:    0.470
 Perform trimming
 Line minimisation2
 ALPHA BEFORE:   0.68662009791030709     
  ** Opt : line minimisation
left   ...       0.00000000    -472.00332864
centre ...       0.17165502    -472.03016153
right  ...       0.34331005    -472.05363916

left   ...       0.00000000    -472.00332864
centre ...       0.17165502    -472.03016153
right  ...       0.34331005    -472.05363916
new    ...       1.34331005    -472.11158356

__s__    ...       1.00000000

left   ...       0.17165502    -472.03016153
centre ...       0.34331005    -472.05363916
right  ...       1.34331005    -472.11158356
new    ...       1.27393766    -472.11220921

__s__    ...      -0.06937239

 ALPHA AFTER:    1.2739376611695636     
  Cycle:     99 Energy:      -472.112209  Gnorm:      0.451585  CPU:    0.475
 Line minimisation2
 ALPHA BEFORE:    1.2739376611695636     
  ** Opt : line minimisation
left   ...       0.00000000    -472.11220921
centre ...       0.31848442    -472.17947045
right  ...       0.63696883    -472.08556265

left   ...       0.00000000    -472.11220921
centre ...       0.31848442    -472.17947045
right  ...       0.63696883    -472.08556265
new    ...       0.29215643    -472.17988884

__s__    ...      -0.34481241

left   ...       0.00000000    -472.11220921
centre ...       0.29215643    -472.17988884
right  ...       0.31848442    -472.17947045
new    ...       0.29509764    -472.17987718

__s__    ...       0.00294122

 ALPHA AFTER:   0.29215642505134487     
  Cycle:    100 Energy:      -472.179889  Gnorm:      0.262665  CPU:    0.479
 Line minimisation2
 ALPHA BEFORE:   0.29215642505134487     
  ** Opt : line minimisation
left   ...       0.00000000    -472.17988884
centre ...       0.07303911    -472.19030977
right  ...       0.14607821    -472.19834575

[...]

__s__    ...      -0.36218908

 ALPHA AFTER:   0.37784984828943380     
  Cycle:    145 Energy:      -475.566853  Gnorm:      0.007107  CPU:    0.674
 Line minimisation2
 ALPHA BEFORE:   0.37784984828943380     
  ** Opt : line minimisation
left   ...       0.00000000    -475.56685278
centre ...       0.09446246    -475.56686271
right  ...       0.18892492    -475.56687056

left   ...       0.00000000    -475.56685278
centre ...       0.09446246    -475.56686271
right  ...       0.18892492    -475.56687056
new    ...       0.49784470    -475.56688169

__s__    ...       0.30891977

 ALPHA AFTER:   0.49784469793993996     
  Cycle:    146 Energy:      -475.566882  Gnorm:      0.007626  CPU:    0.679
 Line minimisation2
 ALPHA BEFORE:   0.49784469793993996     
  ** Opt : line minimisation
left   ...       0.00000000    -475.56688169
centre ...       0.12446117    -475.56689652
right  ...       0.24892235    -475.56690775

left   ...       0.00000000    -475.56688169
centre ...       0.12446117    -475.56689652
right  ...       0.24892235    -475.56690775
new    ...       0.57386114    -475.56692006

__s__    ...       0.32493879

 ALPHA AFTER:   0.57386114031145541     
  Cycle:    147 Energy:      -475.566920  Gnorm:      0.006230  CPU:    0.683
 Line minimisation2
 ALPHA BEFORE:   0.57386114031145541     
  ** Opt : line minimisation
left   ...       0.00000000    -475.56692006
centre ...       0.14346529    -475.56693195
right  ...       0.28693057    -475.56694202

left   ...       0.00000000    -475.56692006
centre ...       0.14346529    -475.56693195
right  ...       0.28693057    -475.56694202
new    ...       1.00907908    -475.56696506

__s__    ...       0.72214851

 ALPHA AFTER:    1.0090790798081193     
  Cycle:    148 Energy:      -475.566965  Gnorm:      0.006359  CPU:    0.686
 Line minimisation2
 ALPHA BEFORE:    1.0090790798081193     
  ** Opt : line minimisation
left   ...       0.00000000    -475.56696506
centre ...       0.25226977    -475.56698241
right  ...       0.50453954    -475.56698750

left   ...       0.00000000    -475.56696506
centre ...       0.25226977    -475.56698241
right  ...       0.50453954    -475.56698750
new    ...       0.48301703    -475.56698754

__s__    ...      -0.02152251

 ALPHA AFTER:   0.48301702715884820     
  Cycle:    149 Energy:      -475.566988  Gnorm:      0.008828  CPU:    0.690
 Line minimisation2
 ALPHA BEFORE:   0.48301702715884820     
  ** Opt : line minimisation
left   ...       0.00000000    -475.56698754
centre ...       0.12075426    -475.56700281
right  ...       0.24150851    -475.56700528

left   ...       0.00000000    -475.56698754
centre ...       0.12075426    -475.56700281
right  ...       0.24150851    -475.56700528
new    ...       0.20443799    -475.56700588

__s__    ...      -0.03707052

 ALPHA AFTER:   0.20443799478055402     
  Cycle:    150 Energy:      -475.567006  Gnorm:      0.005212  CPU:    0.695
 Line minimisation2
 ALPHA BEFORE:   0.20443799478055402     
  ** Opt : line minimisation
left   ...       0.00000000    -475.56700588
centre ...       0.05110950    -475.56700896
right  ...       0.10221900    -475.56701178

left   ...       0.00000000    -475.56700588
centre ...       0.05110950    -475.56700896
right  ...       0.10221900    -475.56701178
new    ...       0.66817150    -475.56702676

__s__    ...       0.56595250

 ALPHA AFTER:   0.66817150217371202     
  Cycle:    151 Energy:      -475.567027  Gnorm:      0.003977  CPU:    0.699
 Line minimisation2
 ALPHA BEFORE:   0.66817150217371202     
  ** Opt : line minimisation
left   ...       0.00000000    -475.56702676
centre ...       0.16704288    -475.56703226
right  ...       0.33408575    -475.56703662

left   ...       0.00000000    -475.56702676
centre ...       0.16704288    -475.56703226
right  ...       0.33408575    -475.56703662
new    ...       0.88258049    -475.56704282

__s__    ...       0.54849474

 ALPHA AFTER:   0.88258048892521457     
  Cycle:    152 Energy:      -475.567043  Gnorm:      0.004425  CPU:    0.703
 Line minimisation2
 ALPHA BEFORE:   0.88258048892521457     
  ** Opt : line minimisation
left   ...       0.00000000    -475.56704282
centre ...       0.22064512    -475.56705066
right  ...       0.44129024    -475.56705425

left   ...       0.00000000    -475.56704282
centre ...       0.22064512    -475.56705066
right  ...       0.44129024    -475.56705425
new    ...       0.51809610    -475.56705451

__s__    ...       0.07680586

 ALPHA AFTER:   0.51809610057010558     
  Cycle:    153 Energy:      -475.567055  Gnorm:      0.004365  CPU:    0.706
 Line minimisation2
 ALPHA BEFORE:   0.51809610057010558     
  ** Opt : line minimisation
left   ...       0.00000000    -475.56705451
centre ...       0.12952403    -475.56705933
right  ...       0.25904805    -475.56706243

left   ...       0.00000000    -475.56705451
centre ...       0.12952403    -475.56705933
right  ...       0.25904805    -475.56706243
new    ...       0.42787366    -475.56706389

__s__    ...       0.16882561

 ALPHA AFTER:   0.42787365644894254     
  Cycle:    154 Energy:      -475.567064  Gnorm:      0.005193  CPU:    0.710
 Perform trimming
 Line minimisation2
 ALPHA BEFORE:   0.42787365644894254     
  ** Opt : line minimisation
left   ...       0.00000000    -475.56706389
centre ...       0.10696841    -475.56707028
right  ...       0.21393683    -475.56707642

left   ...       0.00000000    -475.56706389
centre ...       0.10696841    -475.56707028
right  ...       0.21393683    -475.56707642
new    ...       1.21393683    -475.56712197

__s__    ...       1.00000000

left   ...       0.10696841    -475.56707028
centre ...       0.21393683    -475.56707642
right  ...       1.21393683    -475.56712197
new    ...       2.21393683    -475.56714610

__s__    ...       1.00000000

left   ...       0.21393683    -475.56707642
centre ...       1.21393683    -475.56712197
right  ...       2.21393683    -475.56714610
new    ...       2.84077327    -475.56715030

__s__    ...       0.62683644

 ALPHA AFTER:    2.8407732729528070     
  Cycle:    155 Energy:      -475.567150  Gnorm:      0.005870  CPU:    0.716
 Line minimisation2
 ALPHA BEFORE:    2.8407732729528070     
  ** Opt : line minimisation
left   ...       0.00000000    -475.56715030
centre ...       0.71019332    -475.56718102
right  ...       1.42038664    -475.56716113

left   ...       0.00000000    -475.56715030
centre ...       0.71019332    -475.56718102
right  ...       1.42038664    -475.56716113
new    ...       0.78612101    -475.56718131

__s__    ...      -0.63426562

 ALPHA AFTER:   0.78612101198788664     
  Cycle:    156 Energy:      -475.567181  Gnorm:      0.005692  CPU:    0.720
 Line minimisation2
 ALPHA BEFORE:   0.78612101198788664     
  ** Opt : line minimisation
left   ...       0.00000000    -475.56718131
centre ...       0.19653025    -475.56719425
right  ...       0.39306051    -475.56720389

left   ...       0.00000000    -475.56718131
centre ...       0.19653025    -475.56719425
right  ...       0.39306051    -475.56720389
new    ...       0.86999494    -475.56721359

__s__    ...       0.47693443

 ALPHA AFTER:   0.86999493942060968     
  Cycle:    157 Energy:      -475.567214  Gnorm:      0.004322  CPU:    0.724
 Line minimisation2
 ALPHA BEFORE:   0.86999493942060968     
  ** Opt : line minimisation
left   ...       0.00000000    -475.56721359
centre ...       0.21749873    -475.56722063
right  ...       0.43499747    -475.56722310

left   ...       0.00000000    -475.56721359
centre ...       0.21749873    -475.56722063
right  ...       0.43499747    -475.56722310
new    ...       0.44390169    -475.56722310

__s__    ...       0.00890422

 ALPHA AFTER:   0.44390169270702079     
  Cycle:    158 Energy:      -475.567223  Gnorm:      0.005859  CPU:    0.729
 Perform trimming
 Line minimisation2
 ALPHA BEFORE:   0.44390169270702079     
  ** Opt : line minimisation
left   ...       0.00000000    -475.56722310
centre ...       0.11097542    -475.56722978
right  ...       0.22195085    -475.56723604

left   ...       0.00000000    -475.56722310
centre ...       0.11097542    -475.56722978
right  ...       0.22195085    -475.56723604
new    ...       1.22195085    -475.56727395

__s__    ...       1.00000000

left   ...       0.11097542    -475.56722978
centre ...       0.22195085    -475.56723604
right  ...       1.22195085    -475.56727395
new    ...       1.85701942    -475.56728069

__s__    ...       0.63506857

 ALPHA AFTER:    1.8570194176646122     
  Cycle:    159 Energy:      -475.567281  Gnorm:      0.004096  CPU:    0.734
 Line minimisation2
 ALPHA BEFORE:    1.8570194176646122     
  ** Opt : line minimisation
left   ...       0.00000000    -475.56728069
centre ...       0.46425485    -475.56729233
right  ...       0.92850971    -475.56729222

left   ...       0.00000000    -475.56728069
centre ...       0.46425485    -475.56729233
right  ...       0.92850971    -475.56729222
new    ...       0.69181731    -475.56729375

__s__    ...      -0.23669240

 ALPHA AFTER:   0.69181731129755963     
  Cycle:    160 Energy:      -475.567294  Gnorm:      0.004386  CPU:    0.737
 Perform trimming
 Line minimisation2
 ALPHA BEFORE:   0.69181731129755963     
  ** Opt : line minimisation
left   ...       0.00000000    -475.56729375
centre ...       0.17295433    -475.56729848
right  ...       0.34590866    -475.56729819

left   ...       0.00000000    -475.56729375
centre ...       0.17295433    -475.56729848
right  ...       0.34590866    -475.56729819
new    ...       0.24937470    -475.56729897

__s__    ...      -0.09653395

 ALPHA AFTER:   0.24937470080955926     
  Cycle:    161 Energy:      -475.567299  Gnorm:      0.002388  CPU:    0.741
 Line minimisation2
 ALPHA BEFORE:   0.24937470080955926     
  ** Opt : line minimisation
left   ...       0.00000000    -475.56729897
centre ...       0.06234368    -475.56729975
right  ...       0.12468735    -475.56730047

left   ...       0.00000000    -475.56729897
centre ...       0.06234368    -475.56729975
right  ...       0.12468735    -475.56730047
new    ...       0.90542990    -475.56730479

__s__    ...       0.78074255

 ALPHA AFTER:   0.90542989718952438     
  Cycle:    162 Energy:      -475.567305  Gnorm:      0.001939  CPU:    0.745
 Line minimisation2
 ALPHA BEFORE:   0.90542989718952438     
  ** Opt : line minimisation
left   ...       0.00000000    -475.56730479
centre ...       0.22635747    -475.56730631
right  ...       0.45271495    -475.56730695

left   ...       0.00000000    -475.56730479
centre ...       0.22635747    -475.56730631
right  ...       0.45271495    -475.56730695
new    ...       0.50652885    -475.56730697

__s__    ...       0.05381390

 ALPHA AFTER:   0.50652884725999281     
  Cycle:    163 Energy:      -475.567307  Gnorm:      0.001524  CPU:    0.749
 Line minimisation2
 ALPHA BEFORE:   0.50652884725999281     
  ** Opt : line minimisation
left   ...       0.00000000    -475.56730697
centre ...       0.12663221    -475.56730757
right  ...       0.25326442    -475.56730800

left   ...       0.00000000    -475.56730697
centre ...       0.12663221    -475.56730757
right  ...       0.25326442    -475.56730800
new    ...       0.52392860    -475.56730837

__s__    ...       0.27066417

 ALPHA AFTER:   0.52392859759077870     
  Cycle:    164 Energy:      -475.567308  Gnorm:      0.001864  CPU:    0.753
 Perform trimming
 Line minimisation2
 ALPHA BEFORE:   0.52392859759077870     
  ** Opt : line minimisation
left   ...       0.00000000    -475.56730837
centre ...       0.13098215    -475.56730918
right  ...       0.26196430    -475.56730974

left   ...       0.00000000    -475.56730837
centre ...       0.13098215    -475.56730918
right  ...       0.26196430    -475.56730974
new    ...       0.49407321    -475.56731012

__s__    ...       0.23210891

 ALPHA AFTER:   0.49407320891317924     
  Cycle:    165 Energy:      -475.567310  Gnorm:      0.001281  CPU:    0.757
 Line minimisation2
 ALPHA BEFORE:   0.49407320891317924     
  ** Opt : line minimisation
left   ...       0.00000000    -475.56731012
centre ...       0.12351830    -475.56731055
right  ...       0.24703660    -475.56731090

left   ...       0.00000000    -475.56731012
centre ...       0.12351830    -475.56731055
right  ...       0.24703660    -475.56731090
new    ...       0.78153094    -475.56731158

__s__    ...       0.53449433

 ALPHA AFTER:   0.78153093623850001     
  Cycle:    166 Energy:      -475.567312  Gnorm:      0.001119  CPU:    0.761
 Line minimisation2
 ALPHA BEFORE:   0.78153093623850001     
  ** Opt : line minimisation
left   ...       0.00000000    -475.56731158
centre ...       0.19538273    -475.56731202
right  ...       0.39076547    -475.56731223

left   ...       0.00000000    -475.56731158
centre ...       0.19538273    -475.56731202
right  ...       0.39076547    -475.56731223
new    ...       0.46736480    -475.56731224

__s__    ...       0.07659934

 ALPHA AFTER:   0.46736480328083990     
  Cycle:    167 Energy:      -475.567312  Gnorm:      0.000975  CPU:    0.765
 Line minimisation2
 ALPHA BEFORE:   0.46736480328083990     
  ** Opt : line minimisation
left   ...       0.00000000    -475.56731224
centre ...       0.11684120    -475.56731245
right  ...       0.23368240    -475.56731256

left   ...       0.00000000    -475.56731224
centre ...       0.11684120    -475.56731245
right  ...       0.23368240    -475.56731256
new    ...       0.31976339    -475.56731259

__s__    ...       0.08608099

 ALPHA AFTER:   0.31976339154419342     
  Cycle:    168 Energy:      -475.567313  Gnorm:      0.000742  CPU:    0.769
 Line minimisation2
 ALPHA BEFORE:   0.31976339154419342     
  ** Opt : line minimisation
left   ...       0.00000000    -475.56731259
centre ...       0.07994085    -475.56731268
right  ...       0.15988170    -475.56731277

left   ...       0.00000000    -475.56731259
centre ...       0.07994085    -475.56731268
right  ...       0.15988170    -475.56731277
new    ...       0.75251711    -475.56731306

__s__    ...       0.59263541

 ALPHA AFTER:   0.75251710892876922     


  **** Optimisation achieved ****


  Final energy =    -475.56731306 eV
  Final Gnorm  =       0.00047727

  Components of energy : 

--------------------------------------------------------------------------------
  Interatomic potentials     =          65.00975670 eV    
  Monopole - monopole (real) =        -237.15349483 eV    
  Monopole - monopole (recip)=        -303.42357493 eV    
  Monopole - monopole (total)=        -540.57706976 eV    
--------------------------------------------------------------------------------
  Total lattice energy       =        -475.56731306 eV    
--------------------------------------------------------------------------------
  Total lattice energy       =          -45884.9760 kJ/(mole unit cells)
--------------------------------------------------------------------------------

  Final fractional coordinates of atoms :

--------------------------------------------------------------------------------
   No.  Atomic        x           y          z          Radius
        Label       (Frac)      (Frac)     (Frac)       (Angs) 
--------------------------------------------------------------------------------
     1  O     c     0.500000    0.500000    0.750000    0.000000
     2  O     c     0.499907    0.000087    0.750091    0.000000
     3  O     c     0.999905    0.666837    0.583395    0.000000
     4  O     c     0.999918    0.333502    0.916725    0.000000
     5  O     c     0.999885    0.000188    0.250062    0.000000
     6  O     c     0.499907    0.166875    0.083402    0.000000
     7  O     c     0.499901    0.666872    0.083375    0.000000
     8  O     c     0.499874    0.333536    0.416703    0.000000
     9  O     c     0.499876    0.833542    0.416738    0.000000
    10  Sr    c     0.999869    0.500214    0.250065    0.000000
    11  Sr    c     0.999868    0.833493    0.916728    0.000000
    12  Sr    c     0.999881    0.166826    0.583396    0.000000
    13  Ti    c     0.499906    0.666811    0.583386    0.000000
    14  Ti    c     0.499919    0.333475    0.916721    0.000000
    15  Ti    c     0.499875    0.000210    0.250060    0.000000
--------------------------------------------------------------------------------

  Final Cartesian lattice vectors (Angstroms) :

        3.956495   -0.000000    0.000001
       -0.000000    5.539096   -0.791307
        0.000001   -1.582614    8.704289


  Final cell parameters and derivatives :

--------------------------------------------------------------------------------
       a            3.956495 Angstrom     dE/de1(xx)     0.000324 eV/strain
       b            5.595333 Angstrom     dE/de2(yy)     0.000570 eV/strain
       c            8.846994 Angstrom     dE/de3(zz)     0.000011 eV/strain
       alpha      108.435124 Degrees      dE/de4(yz)    -0.000512 eV/strain
       beta        89.999981 Degrees      dE/de5(xz)     0.000078 eV/strain
       gamma       90.000013 Degrees      dE/de6(xy)    -0.000049 eV/strain
--------------------------------------------------------------------------------

  Primitive cell volume =           185.803197 Angs**3

  Density of cell =      4.919944 g/cm**3

  Non-primitive cell volume =           185.803197 Angs**3


  Final internal derivatives :

--------------------------------------------------------------------------------
   No.  Atomic          a             b             c           Radius
        Label          (eV)          (eV)          (eV)        (eV/Angs)
--------------------------------------------------------------------------------
      1 O     c       0.000000      0.000000      0.000000      0.000000
      2 O     c       0.001045      0.004619      0.000207      0.000000
      3 O     c      -0.002630      0.003565      0.000362      0.000000
      4 O     c      -0.003203      0.003994     -0.007073      0.000000
      5 O     c       0.000434      0.000990      0.000675      0.000000
      6 O     c       0.001545      0.001789      0.002636      0.000000
      7 O     c       0.001912      0.006141      0.005017      0.000000
      8 O     c      -0.003478      0.003612     -0.000739      0.000000
      9 O     c      -0.004868      0.000814      0.004303      0.000000
     10 Sr    c      -0.003270      0.000679      0.007325      0.000000
     11 Sr    c      -0.004463      0.003681      0.000212      0.000000
     12 Sr    c      -0.002670      0.002376     -0.000465      0.000000
     13 Ti    c       0.000926      0.001700     -0.006776      0.000000
     14 Ti    c       0.001567     -0.002715      0.002644      0.000000
     15 Ti    c      -0.004418      0.007665      0.000589      0.000000
--------------------------------------------------------------------------------
  Maximum abs         0.004868      0.007665      0.007325      0.000000
--------------------------------------------------------------------------------


  Time to end of optimisation =       0.7730 seconds

 Exiting ------OPTIONS------

  Peak dynamic memory used =       0.55 MB 


  Timing analysis for GULP :

--------------------------------------------------------------------------------
  Task / Subroutine                                          Time (Seconds)
--------------------------------------------------------------------------------
  Calculation of reciprocal space energy and derivatives          0.0949
  Calculation of real space energy and derivatives                0.6615
  Global summation overhead                                       0.0005
--------------------------------------------------------------------------------
  Total CPU time                                                  0.7730
--------------------------------------------------------------------------------


  Job Finished at 16:25.09  3rd February   2020                               

