********************************************************************************
*                       GENERAL UTILITY LATTICE PROGRAM                        *
*                                 Julian Gale                                  *
*                       Curtin Institute for Computation                       *
*                           Department of Chemistry                            *
*                    Curtin University, Western Australia                      *
********************************************************************************
* Version = 5.1.1 * Last modified =  25th August 2019                          *
********************************************************************************
*  optimise     - perform optimisation run                                     *
*  conp         - constant pressure calculation                                *
*  nosymmetry   - turn off symmetry after initial structure generation         *
*  full         - generate full unit cell when symmetry is removed             *
*  conjugate    - use conjugate gradients minimiser                            *
********************************************************************************
* ASE calculation                                                              *
********************************************************************************


  Job Started  at 16:25.25  3rd February   2020                               

  Number of CPUs =     1


  Total number of configurations input =      1

********************************************************************************
*  Input for Configuration =   1                                               *
********************************************************************************

  Formula = O9Sr3Ti3                                                    

  Number of irreducible atoms/shells =      15


  Total number atoms/shells =      15

  Dimensionality = 3               :  Bulk   



  Cartesian lattice vectors (Angstroms) :

        4.000000    0.000000    0.000000
        0.000000    8.000000    0.000000
        0.000000    0.000000   10.000000

  Cell parameters (Angstroms/Degrees):

  a =       4.0000    alpha =  90.0000
  b =       8.0000    beta  =  90.0000
  c =      10.0000    gamma =  90.0000

  Initial cell volume =         320.000000 Angs**3

  Temperature of configuration =  0.000     K 

  Pressure of configuration =         0.000 GPa 

  Fractional coordinates of asymmetric unit :

--------------------------------------------------------------------------------
   No.  Atomic       x           y          z         Charge      Occupancy
        Label      (Frac)      (Frac)     (Frac)        (e)         (Frac)  
--------------------------------------------------------------------------------
      1 O     c    0.500000    0.250000    0.600000    -2.00000    1.000000    
      2 O     c    0.000000 *  0.750000 *  0.800000 *  -2.00000    1.000000    
      3 O     c    0.500000 *  0.500000 *  0.800000 *  -2.00000    1.000000    
      4 O     c    0.500000 *  0.250000 *  0.000000 *  -2.00000    1.000000    
      5 O     c    0.500000 *  0.500000 *  0.200000 *  -2.00000    1.000000    
      6 O     c    0.000000 *  0.500000 *  0.200000 *  -2.00000    1.000000    
      7 O     c    0.000000 *  0.250000 *  0.600000 *  -2.00000    1.000000    
      8 O     c    0.500000 *  0.250000 *  0.400000 *  -2.00000    1.000000    
      9 O     c    0.500000 *  0.500000 *  0.400000 *  -2.00000    1.000000    
     10 Sr    c    0.250000 *  0.875000 *  0.500000 *   2.00000    1.000000    
     11 Sr    c    0.250000 *  0.125000 *  0.900000 *   2.00000    1.000000    
     12 Sr    c    0.250000 *  0.625000 *  0.900000 *   2.00000    1.000000    
     13 Ti    c    0.750000 *  0.875000 *  0.700000 *   4.00000    1.000000    
     14 Ti    c    0.750000 *  0.375000 *  0.100000 *   4.00000    1.000000    
     15 Ti    c    0.250000 *  0.125000 *  0.500000 *   4.00000    1.000000    
--------------------------------------------------------------------------------



********************************************************************************
*  General input information                                                   *
********************************************************************************

  Species output for all configurations : 

--------------------------------------------------------------------------------
  Species    Type    Atomic    Atomic    Charge       Radii (Angs)     Library
                     Number     Mass       (e)     Cova   Ionic  VDW   Symbol
--------------------------------------------------------------------------------
    O        Core        8      16.00  -2.000000   0.730  0.000  1.360          
    Sr       Core       38      87.62   2.000000   1.120  0.000  1.670          
    Ti       Core       22      47.88   4.000000   1.470  0.000  2.190          
--------------------------------------------------------------------------------


  Lattice summation method               =    Ewald          (3-D)
                                         =    Parry          (2-D)
                                         =    Saunders et al (1-D)
  Accuracy factor for lattice sums       =   12.000


  Time limit = Infinity

  Maximum range for interatomic potentials =    100000.000000 Angstroms

  General interatomic potentials :

--------------------------------------------------------------------------------
Atom  Types   Potential      Parameter       Value         Units   Cutoffs(Ang)
  1     2                                                            Min /  Max 
--------------------------------------------------------------------------------
O    c Sr   c Buckingham    Buckingham A     1952.3900    eV        0.000 10.000
                            Buckingham rho  0.33685000    Ang       
                            Buckingham C     19.220000    eV*Ang^6  
--------------------------------------------------------------------------------
O    c Ti   c Buckingham    Buckingham A     4590.7279    eV        0.000 10.000
                            Buckingham rho  0.26100000    Ang       
                            Buckingham C     0.0000000    eV*Ang^6  
--------------------------------------------------------------------------------
O    c O    c Buckingham    Buckingham A     1388.7700    eV        0.000 10.000
                            Buckingham rho  0.36262000    Ang       
                            Buckingham C     175.00000    eV*Ang^6  
--------------------------------------------------------------------------------
 Calling ------OPTIONS------

********************************************************************************
*  Output for configuration   1                                                *
********************************************************************************


  Components of energy : 

--------------------------------------------------------------------------------
  Interatomic potentials     =          97.01435912 eV    
  Monopole - monopole (real) =        -115.35329340 eV    
  Monopole - monopole (recip)=        -197.84378280 eV    
  Monopole - monopole (total)=        -313.19707620 eV    
--------------------------------------------------------------------------------
  Total lattice energy       =        -216.18271708 eV    
--------------------------------------------------------------------------------
  Total lattice energy       =          -20858.3275 kJ/(mole unit cells)
--------------------------------------------------------------------------------


  Number of variables =       48

  Maximum number of calculations  =          1000
  Maximum Hessian update interval =            10
  Maximum step size               =   1.000000000
  Maximum parameter tolerance     =   0.000010000
  Maximum function  tolerance     =   0.000010000
  Maximum gradient  tolerance     =   0.001000000
  Maximum gradient  component     =   0.010000000

  Cell parameters to be optimised using strains

  Conjugate gradient optimiser to be used

  Lower half triangular hessian to be used

  Start of bulk optimisation :

  Cycle:      0 Energy:      -216.182717  Gnorm:     26.153688  CPU:    0.014
 Perform trimming
 Line minimisation2
 ALPHA BEFORE:    1.0000000000000000     
  ** Opt : line minimisation
left   ...       0.00000000    -216.18271708
centre ...       0.25000000    -273.30560253
right  ...       0.50000000    -308.48502498

left   ...       0.00000000    -216.18271708
centre ...       0.25000000    -273.30560253
right  ...       0.50000000    -308.48502498
new    ...       0.77579616    -328.26969713

__s__    ...       0.27579616

left   ...       0.25000000    -273.30560253
centre ...       0.50000000    -308.48502498
right  ...       0.77579616    -328.26969713
new    ...       0.91129767    -332.98357959

__s__    ...       0.13550152

left   ...       0.50000000    -308.48502498
centre ...       0.77579616    -328.26969713
right  ...       0.91129767    -332.98357959
new    ...       1.03717483    -335.07537576

__s__    ...       0.12587716

left   ...       0.77579616    -328.26969713
centre ...       0.91129767    -332.98357959
right  ...       1.03717483    -335.07537576
new    ...       1.09375665    -335.36627627

__s__    ...       0.05658182

 ALPHA AFTER:    1.0937566518055146     
  Cycle:      1 Energy:      -335.366276  Gnorm:     30.937696  CPU:    0.026
 Perform trimming
 Line minimisation2
 ALPHA BEFORE:    1.0937566518055146     
  ** Opt : line minimisation
left   ...       0.00000000    -335.36627627
centre ...       0.27343916    -382.69078566
right  ...       0.54687833    -368.36733129

left   ...       0.00000000    -335.36627627
centre ...       0.27343916    -382.69078566
right  ...       0.54687833    -368.36733129
new    ...       0.34662715    -380.85510697

__s__    ...      -0.20025117

left   ...       0.00000000    -335.36627627
centre ...       0.27343916    -382.69078566
right  ...       0.34662715    -380.85510697
new    ...       0.28809559    -382.54073890

__s__    ...      -0.05853156

left   ...       0.00000000    -335.36627627
centre ...       0.27343916    -382.69078566
right  ...       0.28809559    -382.54073890
new    ...       0.27272246    -382.69476122

__s__    ...      -0.01537312

 ALPHA AFTER:   0.27272246406494022     
  Cycle:      2 Energy:      -382.694761  Gnorm:      7.573414  CPU:    0.032
 Line minimisation2
 ALPHA BEFORE:   0.27272246406494022     
  ** Opt : line minimisation
left   ...       0.00000000    -382.69476122
centre ...       0.06818062    -390.46325458
right  ...       0.13636123    -395.83270063

left   ...       0.00000000    -382.69476122
centre ...       0.06818062    -390.46325458
right  ...       0.13636123    -395.83270063
new    ...       0.25486989    -399.59975836

__s__    ...       0.11850866

left   ...       0.06818062    -390.46325458
centre ...       0.13636123    -395.83270063
right  ...       0.25486989    -399.59975836
new    ...       0.25879232    -399.61053818

__s__    ...       0.00392243

 ALPHA AFTER:   0.25879232074921438     
  Cycle:      3 Energy:      -399.610538  Gnorm:      7.262433  CPU:    0.037
 Line minimisation2
 ALPHA BEFORE:   0.25879232074921438     
  ** Opt : line minimisation
left   ...       0.00000000    -399.61053818
centre ...       0.06469808    -406.52160758
right  ...       0.12939616    -411.54042926

left   ...       0.00000000    -399.61053818
centre ...       0.06469808    -406.52160758
right  ...       0.12939616    -411.54042926
new    ...       0.26864628    -417.06703513

__s__    ...       0.13925012

left   ...       0.06469808    -406.52160758
centre ...       0.12939616    -411.54042926
right  ...       0.26864628    -417.06703513
new    ...       0.30585038    -417.55446414

__s__    ...       0.03720410

 ALPHA AFTER:   0.30585038211981608     
  Cycle:      4 Energy:      -417.554464  Gnorm:      5.368166  CPU:    0.041
 Line minimisation2
 ALPHA BEFORE:   0.30585038211981608     
  ** Opt : line minimisation
left   ...       0.00000000    -417.55446414
centre ...       0.07646260    -422.34999888
right  ...       0.15292519    -426.03916300

left   ...       0.00000000    -417.55446414
centre ...       0.07646260    -422.34999888
right  ...       0.15292519    -426.03916300
new    ...       0.36965643    -430.82863908

__s__    ...       0.21673124

left   ...       0.07646260    -422.34999888
centre ...       0.15292519    -426.03916300
right  ...       0.36965643    -430.82863908
new    ...       0.38517953    -430.85878219

__s__    ...       0.01552310

 ALPHA AFTER:   0.38517952923918297     
  Cycle:      5 Energy:      -430.858782  Gnorm:      4.851140  CPU:    0.044
 Line minimisation2
 ALPHA BEFORE:   0.38517952923918297     
  ** Opt : line minimisation
left   ...       0.00000000    -430.85878219
centre ...       0.09629488    -435.18516970
right  ...       0.19258976    -437.14362094

left   ...       0.00000000    -430.85878219
centre ...       0.09629488    -435.18516970
right  ...       0.19258976    -437.14362094
new    ...       0.22408502    -437.15478790

__s__    ...       0.03149526

 ALPHA AFTER:   0.22408502110484219     
  Cycle:      6 Energy:      -437.154788  Gnorm:      6.439556  CPU:    0.047
 Perform trimming
 Line minimisation2
 ALPHA BEFORE:   0.22408502110484219     
  ** Opt : line minimisation
left   ...       0.00000000    -437.15478790
centre ...       0.05602126    -441.03504025
right  ...       0.11204251    -443.82138687

left   ...       0.00000000    -437.15478790
centre ...       0.05602126    -441.03504025
right  ...       0.11204251    -443.82138687
new    ...       0.22672666    -445.63324260

__s__    ...       0.11468415

left   ...       0.05602126    -441.03504025
centre ...       0.11204251    -443.82138687
right  ...       0.22672666    -445.63324260
new    ...       0.20911681    -445.71396624

__s__    ...      -0.01760985

 ALPHA AFTER:   0.20911681145859148     
  Cycle:      7 Energy:      -445.713966  Gnorm:      3.374507  CPU:    0.052
 Line minimisation2
 ALPHA BEFORE:   0.20911681145859148     
  ** Opt : line minimisation
left   ...       0.00000000    -445.71396624
centre ...       0.05227920    -446.89741178
right  ...       0.10455841    -447.72649776

left   ...       0.00000000    -445.71396624
centre ...       0.05227920    -446.89741178
right  ...       0.10455841    -447.72649776
new    ...       0.20073512    -448.42792571

__s__    ...       0.09617671

left   ...       0.05227920    -446.89741178
centre ...       0.10455841    -447.72649776
right  ...       0.20073512    -448.42792571
new    ...       0.21584691    -448.44935107

__s__    ...       0.01511179

 ALPHA AFTER:   0.21584690839858697     
  Cycle:      8 Energy:      -448.449351  Gnorm:      3.417856  CPU:    0.056
 Line minimisation2
 ALPHA BEFORE:   0.21584690839858697     
  ** Opt : line minimisation
left   ...       0.00000000    -448.44935107
centre ...       0.05396173    -449.71685894
right  ...       0.10792345    -450.55566728

left   ...       0.00000000    -448.44935107
centre ...       0.05396173    -449.71685894
right  ...       0.10792345    -450.55566728
new    ...       0.18652598    -451.07945587

__s__    ...       0.07860252

left   ...       0.05396173    -449.71685894
centre ...       0.10792345    -450.55566728
right  ...       0.18652598    -451.07945587
new    ...       0.19696024    -451.09000986

__s__    ...       0.01043426

 ALPHA AFTER:   0.19696024096120227     
  Cycle:      9 Energy:      -451.090010  Gnorm:      2.446693  CPU:    0.061
 Line minimisation2
 ALPHA BEFORE:   0.19696024096120227     
  ** Opt : line minimisation
left   ...       0.00000000    -451.09000986
centre ...       0.04924006    -451.66378286
right  ...       0.09848012    -452.02417273

left   ...       0.00000000    -451.09000986
centre ...       0.04924006    -451.66378286
right  ...       0.09848012    -452.02417273
new    ...       0.15702326    -452.20910039

__s__    ...       0.05854314

 ALPHA AFTER:   0.15702326322252885     
  Cycle:     10 Energy:      -452.209100  Gnorm:      1.797666  CPU:    0.065
 Line minimisation2
 ALPHA BEFORE:   0.15702326322252885     
  ** Opt : line minimisation
left   ...       0.00000000    -452.20910039
centre ...       0.03925582    -452.50797822
right  ...       0.07851163    -452.76492388

left   ...       0.00000000    -452.20910039
centre ...       0.03925582    -452.50797822
right  ...       0.07851163    -452.76492388
new    ...       0.29942969    -453.37222275

__s__    ...       0.22091806

left   ...       0.03925582    -452.50797822
centre ...       0.07851163    -452.76492388
right  ...       0.29942969    -453.37222275
new    ...       0.28316581    -453.37912928

__s__    ...      -0.01626388

 ALPHA AFTER:   0.28316581472184293     
  Cycle:     11 Energy:      -453.379129  Gnorm:      2.000249  CPU:    0.070
 Perform trimming
 Line minimisation2
 ALPHA BEFORE:   0.28316581472184293     
  ** Opt : line minimisation
left   ...       0.00000000    -453.37912928
centre ...       0.07079145    -453.93764678
right  ...       0.14158291    -454.38609885

left   ...       0.00000000    -453.37912928
centre ...       0.07079145    -453.93764678
right  ...       0.14158291    -454.38609885
new    ...       0.39462083    -454.95940672

__s__    ...       0.25303792

left   ...       0.07079145    -453.93764678
centre ...       0.14158291    -454.38609885
right  ...       0.39462083    -454.95940672
new    ...       0.35825619    -454.98653664

__s__    ...      -0.03636464

 ALPHA AFTER:   0.35825618834699235     
  Cycle:     12 Energy:      -454.986537  Gnorm:      2.217319  CPU:    0.074
 Line minimisation2
 ALPHA BEFORE:   0.35825618834699235     
  ** Opt : line minimisation
left   ...       0.00000000    -454.98653664
centre ...       0.08956405    -455.79288337
right  ...       0.17912809    -456.23315808

left   ...       0.00000000    -454.98653664
centre ...       0.08956405    -455.79288337
right  ...       0.17912809    -456.23315808
new    ...       0.24206472    -456.34190354

__s__    ...       0.06293663

 ALPHA AFTER:   0.24206472071906060     
  Cycle:     13 Energy:      -456.341904  Gnorm:      1.713868  CPU:    0.078
 Line minimisation2
 ALPHA BEFORE:   0.24206472071906060     
  ** Opt : line minimisation
left   ...       0.00000000    -456.34190354
centre ...       0.06051618    -456.68005099
right  ...       0.12103236    -456.85233913

left   ...       0.00000000    -456.34190354
centre ...       0.06051618    -456.68005099
right  ...       0.12103236    -456.85233913
new    ...       0.15363610    -456.87613287

__s__    ...       0.03260374

 ALPHA AFTER:   0.15363610318971957     
  Cycle:     14 Energy:      -456.876133  Gnorm:      1.286762  CPU:    0.082
 Line minimisation2
 ALPHA BEFORE:   0.15363610318971957     
  ** Opt : line minimisation
left   ...       0.00000000    -456.87613287
centre ...       0.03840903    -457.01210428
right  ...       0.07681805    -457.12689540

left   ...       0.00000000    -456.87613287
centre ...       0.03840903    -457.01210428
right  ...       0.07681805    -457.12689540
new    ...       0.26577943    -457.39318729

__s__    ...       0.18896138

left   ...       0.03840903    -457.01210428
centre ...       0.07681805    -457.12689540
right  ...       0.26577943    -457.39318729
new    ...       0.27273518    -457.39385972

__s__    ...       0.00695574

 ALPHA AFTER:   0.27273517647006307     
  Cycle:     15 Energy:      -457.393860  Gnorm:      1.103273  CPU:    0.087
 Line minimisation2
 ALPHA BEFORE:   0.27273517647006307     
  ** Opt : line minimisation
left   ...       0.00000000    -457.39385972
centre ...       0.06818379    -457.56540940
right  ...       0.13636759    -457.69305827

left   ...       0.00000000    -457.39385972
centre ...       0.06818379    -457.56540940
right  ...       0.13636759    -457.69305827
new    ...       0.30053136    -457.82749817

__s__    ...       0.16416377

left   ...       0.06818379    -457.56540940
centre ...       0.13636759    -457.69305827
right  ...       0.30053136    -457.82749817
new    ...       0.30878356    -457.82791788

__s__    ...       0.00825221

 ALPHA AFTER:   0.30878356372364274     
  Cycle:     16 Energy:      -457.827918  Gnorm:      1.193532  CPU:    0.092
 Line minimisation2
 ALPHA BEFORE:   0.30878356372364274     
  ** Opt : line minimisation
left   ...       0.00000000    -457.82791788
centre ...       0.07719589    -458.06417210
right  ...       0.15439178    -458.26331571

left   ...       0.00000000    -457.82791788
centre ...       0.07719589    -458.06417210
right  ...       0.15439178    -458.26331571
new    ...       0.53004394    -458.67472868

__s__    ...       0.37565215

left   ...       0.07719589    -458.06417210
centre ...       0.15439178    -458.26331571
right  ...       0.53004394    -458.67472868
new    ...       0.50926082    -458.67656367

__s__    ...      -0.02078311

 ALPHA AFTER:   0.50926082208234091     
  Cycle:     17 Energy:      -458.676564  Gnorm:      1.450554  CPU:    0.097
 Perform trimming
 Line minimisation2
 ALPHA BEFORE:   0.50926082208234091     
  ** Opt : line minimisation
left   ...       0.00000000    -458.67656367
centre ...       0.12731521    -459.04143367
right  ...       0.25463041    -458.94759174

left   ...       0.00000000    -458.67656367
centre ...       0.12731521    -459.04143367
right  ...       0.25463041    -458.94759174
new    ...       0.16492704    -459.05940984

__s__    ...      -0.08970337

left   ...       0.12731521    -459.04143367
centre ...       0.16492704    -459.05940984
right  ...       0.25463041    -458.94759174
new    ...       0.16376390    -459.05944207

__s__    ...      -0.00116314

 ALPHA AFTER:   0.16376390261260673     
  Cycle:     18 Energy:      -459.059442  Gnorm:      1.324505  CPU:    0.102
 Line minimisation2
 ALPHA BEFORE:   0.16376390261260673     
  ** Opt : line minimisation
left   ...       0.00000000    -459.05944207
centre ...       0.04094098    -459.21452449
right  ...       0.08188195    -459.34983972

left   ...       0.00000000    -459.05944207
centre ...       0.04094098    -459.21452449
right  ...       0.08188195    -459.34983972
new    ...       0.34167066    -459.70738930

__s__    ...       0.25978870

left   ...       0.04094098    -459.21452449
centre ...       0.08188195    -459.34983972
right  ...       0.34167066    -459.70738930
new    ...       0.31906909    -459.71158534

__s__    ...      -0.02260156

 ALPHA AFTER:   0.31906909145462353     
  Cycle:     19 Energy:      -459.711585  Gnorm:      1.149213  CPU:    0.106
 Line minimisation2
 ALPHA BEFORE:   0.31906909145462353     
  ** Opt : line minimisation
left   ...       0.00000000    -459.71158534
centre ...       0.07976727    -459.89294610
right  ...       0.15953455    -459.95596215

left   ...       0.00000000    -459.71158534
centre ...       0.07976727    -459.89294610
right  ...       0.15953455    -459.95596215
new    ...       0.16212529    -459.95609092

__s__    ...       0.00259075

 ALPHA AFTER:   0.16212529271902498     
  Cycle:     20 Energy:      -459.956091  Gnorm:      0.786178  CPU:    0.110
 Line minimisation2
 ALPHA BEFORE:   0.16212529271902498     
  ** Opt : line minimisation
left   ...       0.00000000    -459.95609092
centre ...       0.04053132    -460.01143565
right  ...       0.08106265    -460.06051172

left   ...       0.00000000    -459.95609092
centre ...       0.04053132    -460.01143565
right  ...       0.08106265    -460.06051172
new    ...       0.37810801    -460.22756522

__s__    ...       0.29704537

left   ...       0.04053132    -460.01143565
centre ...       0.08106265    -460.06051172
right  ...       0.37810801    -460.22756522
new    ...       0.37597460    -460.22758185

__s__    ...      -0.00213341

 ALPHA AFTER:   0.37597460095028212     
  Cycle:     21 Energy:      -460.227582  Gnorm:      0.789178  CPU:    0.115
 Line minimisation2
 ALPHA BEFORE:   0.37597460095028212     
  ** Opt : line minimisation
left   ...       0.00000000    -460.22758185
centre ...       0.09399365    -460.34278121
right  ...       0.18798730    -460.41928062

left   ...       0.00000000    -460.22758185
centre ...       0.09399365    -460.34278121
right  ...       0.18798730    -460.41928062
new    ...       0.32679071    -460.46467391

__s__    ...       0.13880341

 ALPHA AFTER:   0.32679071148388428     
  Cycle:     22 Energy:      -460.464674  Gnorm:      0.688213  CPU:    0.119
 Line minimisation2
 ALPHA BEFORE:   0.32679071148388428     
  ** Opt : line minimisation
left   ...       0.00000000    -460.46467391
centre ...       0.08169768    -460.54229065
right  ...       0.16339536    -460.59009785

left   ...       0.00000000    -460.46467391
centre ...       0.08169768    -460.54229065
right  ...       0.16339536    -460.59009785
new    ...       0.25356953    -460.60821165

__s__    ...       0.09017418

 ALPHA AFTER:   0.25356953274214156     
  Cycle:     23 Energy:      -460.608212  Gnorm:      0.789072  CPU:    0.123
 Perform trimming
 Line minimisation2
 ALPHA BEFORE:   0.25356953274214156     
  ** Opt : line minimisation
left   ...       0.00000000    -460.60821165
centre ...       0.06339238    -460.69124548
right  ...       0.12678477    -460.76028686

left   ...       0.00000000    -460.60821165
centre ...       0.06339238    -460.69124548
right  ...       0.12678477    -460.76028686
new    ...       0.40787835    -460.89616099

__s__    ...       0.28109358

left   ...       0.06339238    -460.69124548
centre ...       0.12678477    -460.76028686
right  ...       0.40787835    -460.89616099
new    ...       0.40478161    -460.89620014

__s__    ...      -0.00309674

 ALPHA AFTER:   0.40478160622160436     
  Cycle:     24 Energy:      -460.896200  Gnorm:      0.983486  CPU:    0.128
 Perform trimming
 Line minimisation2
 ALPHA BEFORE:   0.40478160622160436     
  ** Opt : line minimisation
left   ...       0.00000000    -460.89620014
centre ...       0.10119540    -461.07889294
right  ...       0.20239080    -461.19640434

left   ...       0.00000000    -460.89620014
centre ...       0.10119540    -461.07889294
right  ...       0.20239080    -461.19640434
new    ...       0.33423185    -461.24673063

__s__    ...       0.13184104

 ALPHA AFTER:   0.33423184629340330     
  Cycle:     25 Energy:      -461.246731  Gnorm:      1.179094  CPU:    0.132
 Perform trimming
 Line minimisation2
 ALPHA BEFORE:   0.33423184629340330     
  ** Opt : line minimisation
left   ...       0.00000000    -461.24673063
centre ...       0.08355796    -461.48512516
right  ...       0.16711592    -461.69430725

left   ...       0.00000000    -461.24673063
centre ...       0.08355796    -461.48512516
right  ...       0.16711592    -461.69430725
new    ...       0.72367224    -461.91376542

__s__    ...       0.55655631

left   ...       0.08355796    -461.48512516
centre ...       0.16711592    -461.69430725
right  ...       0.72367224    -461.91376542
new    ...       0.50523088    -462.13976674

__s__    ...      -0.21844136

left   ...       0.16711592    -461.69430725
centre ...       0.50523088    -462.13976674
right  ...       0.72367224    -461.91376542
new    ...       0.49204586    -462.13757053

__s__    ...      -0.01318502

 ALPHA AFTER:   0.50523087532532129     
  Cycle:     26 Energy:      -462.139767  Gnorm:      0.942601  CPU:    0.138
 Line minimisation2
 ALPHA BEFORE:   0.50523087532532129     
  ** Opt : line minimisation
left   ...       0.00000000    -462.13976674
centre ...       0.12630772    -462.34864348
right  ...       0.25261544    -462.44659044

left   ...       0.00000000    -462.13976674
centre ...       0.12630772    -462.34864348
right  ...       0.25261544    -462.44659044
new    ...       0.30098670    -462.45474583

__s__    ...       0.04837127

 ALPHA AFTER:   0.30098670332524563     
  Cycle:     27 Energy:      -462.454746  Gnorm:      0.963693  CPU:    0.141
 Line minimisation2
 ALPHA BEFORE:   0.30098670332524563     
  ** Opt : line minimisation
left   ...       0.00000000    -462.45474583
centre ...       0.07524668    -462.59224445
right  ...       0.15049335    -462.67991290

left   ...       0.00000000    -462.45474583
centre ...       0.07524668    -462.59224445
right  ...       0.15049335    -462.67991290
new    ...       0.24525485    -462.72137793

__s__    ...       0.09476150

 ALPHA AFTER:   0.24525485485483223     
  Cycle:     28 Energy:      -462.721378  Gnorm:      0.771759  CPU:    0.145
 Line minimisation2
 ALPHA BEFORE:   0.24525485485483223     
  ** Opt : line minimisation
left   ...       0.00000000    -462.72137793
centre ...       0.06131371    -462.79968083
right  ...       0.12262743    -462.86324204

left   ...       0.00000000    -462.72137793
centre ...       0.06131371    -462.79968083
right  ...       0.12262743    -462.86324204
new    ...       0.35633473    -462.96757078

__s__    ...       0.23370731

left   ...       0.06131371    -462.79968083
centre ...       0.12262743    -462.86324204
right  ...       0.35633473    -462.96757078
new    ...       0.35104407    -462.96765009

__s__    ...      -0.00529067

 ALPHA AFTER:   0.35104406829380735     
  Cycle:     29 Energy:      -462.967650  Gnorm:      0.744655  CPU:    0.150
 Line minimisation2
 ALPHA BEFORE:   0.35104406829380735     
  ** Opt : line minimisation
left   ...       0.00000000    -462.96765009
centre ...       0.08776102    -463.04076817
right  ...       0.17552203    -463.03722893

left   ...       0.00000000    -462.96765009
centre ...       0.08776102    -463.04076817
right  ...       0.17552203    -463.03722893
new    ...       0.12758963    -463.04837571

__s__    ...      -0.04793240

 ALPHA AFTER:   0.12758963245673377     
  Cycle:     30 Energy:      -463.048376  Gnorm:      0.509065  CPU:    0.154
 Line minimisation2
 ALPHA BEFORE:   0.12758963245673377     
  ** Opt : line minimisation
left   ...       0.00000000    -463.04837571
centre ...       0.03189741    -463.06658772
right  ...       0.06379482    -463.08290522

left   ...       0.00000000    -463.04837571
centre ...       0.03189741    -463.06658772
right  ...       0.06379482    -463.08290522
new    ...       0.32258123    -463.14675875

__s__    ...       0.25878642

left   ...       0.03189741    -463.06658772
centre ...       0.06379482    -463.08290522
right  ...       0.32258123    -463.14675875
new    ...       0.32860835    -463.14700611

__s__    ...       0.00602712

 ALPHA AFTER:   0.32860835059248045     
  Cycle:     31 Energy:      -463.147006  Gnorm:      0.467182  CPU:    0.159
 Line minimisation2
 ALPHA BEFORE:   0.32860835059248045     
  ** Opt : line minimisation
left   ...       0.00000000    -463.14700611
centre ...       0.08215209    -463.18479187
right  ...       0.16430418    -463.21427704

left   ...       0.00000000    -463.14700611
centre ...       0.08215209    -463.18479187
right  ...       0.16430418    -463.21427704
new    ...       0.41504700    -463.25281280

__s__    ...       0.25074282

left   ...       0.08215209    -463.18479187
centre ...       0.16430418    -463.21427704
right  ...       0.41504700    -463.25281280
new    ...       0.41432378    -463.25281510

__s__    ...      -0.00072322

 ALPHA AFTER:   0.41432377691337735     
  Cycle:     32 Energy:      -463.252815  Gnorm:      0.554191  CPU:    0.164
 Perform trimming
 Line minimisation2
 ALPHA BEFORE:   0.41432377691337735     
  ** Opt : line minimisation
left   ...       0.00000000    -463.25281510
centre ...       0.10358094    -463.31060908
right  ...       0.20716189    -463.34769374

left   ...       0.00000000    -463.25281510
centre ...       0.10358094    -463.31060908
right  ...       0.20716189    -463.34769374
new    ...       0.34085624    -463.36440214

__s__    ...       0.13369436

 ALPHA AFTER:   0.34085624478672777     
  Cycle:     33 Energy:      -463.364402  Gnorm:      0.513581  CPU:    0.168
 Line minimisation2
 ALPHA BEFORE:   0.34085624478672777     
  ** Opt : line minimisation
left   ...       0.00000000    -463.36440214
centre ...       0.08521406    -463.41015200
right  ...       0.17042812    -463.44495673

left   ...       0.00000000    -463.36440214
centre ...       0.08521406    -463.41015200
right  ...       0.17042812    -463.44495673
new    ...       0.39879566    -463.48732116

__s__    ...       0.22836754

left   ...       0.08521406    -463.41015200
centre ...       0.17042812    -463.44495673
right  ...       0.39879566    -463.48732116
new    ...       0.41508503    -463.48752657

__s__    ...       0.01628936

 ALPHA AFTER:   0.41508502730076741     
  Cycle:     34 Energy:      -463.487527  Gnorm:      0.485833  CPU:    0.173
 Line minimisation2
 ALPHA BEFORE:   0.41508502730076741     
  ** Opt : line minimisation
left   ...       0.00000000    -463.48752657
centre ...       0.10377126    -463.53106999
right  ...       0.20754251    -463.54809862

left   ...       0.00000000    -463.48752657
centre ...       0.10377126    -463.53106999
right  ...       0.20754251    -463.54809862
new    ...       0.22230205    -463.54830969

__s__    ...       0.01475953

 ALPHA AFTER:   0.22230204565854891     
  Cycle:     35 Energy:      -463.548310  Gnorm:      0.445036  CPU:    0.177
 Line minimisation2
 ALPHA BEFORE:   0.22230204565854891     
  ** Opt : line minimisation
left   ...       0.00000000    -463.54830969
centre ...       0.05557551    -463.57181318
right  ...       0.11115102    -463.59174640

left   ...       0.00000000    -463.54830969
centre ...       0.05557551    -463.57181318
right  ...       0.11115102    -463.59174640
new    ...       0.39364755    -463.63392594

__s__    ...       0.28249653

left   ...       0.05557551    -463.57181318
centre ...       0.11115102    -463.59174640
right  ...       0.39364755    -463.63392594
new    ...       0.37295167    -463.63418991

__s__    ...      -0.02069588

 ALPHA AFTER:   0.37295167477366814     
  Cycle:     36 Energy:      -463.634190  Gnorm:      0.551248  CPU:    0.181
 Perform trimming
 Line minimisation2
 ALPHA BEFORE:   0.37295167477366814     
  ** Opt : line minimisation
left   ...       0.00000000    -463.63418991
centre ...       0.09323792    -463.68509866
right  ...       0.18647584    -463.71574046

left   ...       0.00000000    -463.63418991
centre ...       0.09323792    -463.68509866
right  ...       0.18647584    -463.71574046
new    ...       0.28082418    -463.72613047

__s__    ...       0.09434835

 ALPHA AFTER:   0.28082418239008466     
  Cycle:     37 Energy:      -463.726130  Gnorm:      0.544774  CPU:    0.185
 Line minimisation2
 ALPHA BEFORE:   0.28082418239008466     
  ** Opt : line minimisation
left   ...       0.00000000    -463.72613047
centre ...       0.07020605    -463.77169635
right  ...       0.14041209    -463.81299590

left   ...       0.00000000    -463.72613047
centre ...       0.07020605    -463.77169635
right  ...       0.14041209    -463.81299590
new    ...       0.78492804    -463.96433792

__s__    ...       0.64451594

left   ...       0.07020605    -463.77169635
centre ...       0.14041209    -463.81299590
right  ...       0.78492804    -463.96433792
new    ...       0.70008533    -463.96853394

__s__    ...      -0.08484271

 ALPHA AFTER:   0.70008532920673550     
  Cycle:     38 Energy:      -463.968534  Gnorm:      0.664502  CPU:    0.190
 Perform trimming
 Line minimisation2
 ALPHA BEFORE:   0.70008532920673550     
  ** Opt : line minimisation
left   ...       0.00000000    -463.96853394
centre ...       0.17502133    -464.11074421
right  ...       0.35004266    -464.22185080

left   ...       0.00000000    -463.96853394
centre ...       0.17502133    -464.11074421
right  ...       0.35004266    -464.22185080
new    ...       0.88773190    -464.34712251

__s__    ...       0.53768923

left   ...       0.17502133    -464.11074421
centre ...       0.35004266    -464.22185080
right  ...       0.88773190    -464.34712251
new    ...       0.82549964    -464.35098150

__s__    ...      -0.06223226

 ALPHA AFTER:   0.82549963657339764     
  Cycle:     39 Energy:      -464.350981  Gnorm:      0.797337  CPU:    0.195
 Line minimisation2
 ALPHA BEFORE:   0.82549963657339764     
  ** Opt : line minimisation
left   ...       0.00000000    -464.35098150
centre ...       0.20637491    -464.49931611
right  ...       0.41274982    -464.34668578

left   ...       0.00000000    -464.35098150
centre ...       0.20637491    -464.49931611
right  ...       0.41274982    -464.34668578
new    ...       0.20490210    -464.49933959

__s__    ...      -0.20784772

left   ...       0.00000000    -464.35098150
centre ...       0.20490210    -464.49933959
right  ...       0.20637491    -464.49931611
new    ...       0.20341573    -464.49934773

__s__    ...      -0.00148637

 ALPHA AFTER:   0.20341573268621121     
  Cycle:     40 Energy:      -464.499348  Gnorm:      0.777423  CPU:    0.200
 Line minimisation2
 ALPHA BEFORE:   0.20341573268621121     
  ** Opt : line minimisation
left   ...       0.00000000    -464.49934773
centre ...       0.05085393    -464.56158677
right  ...       0.10170787    -464.60707088

left   ...       0.00000000    -464.49934773
centre ...       0.05085393    -464.56158677
right  ...       0.10170787    -464.60707088
new    ...       0.21433258    -464.64854620

__s__    ...       0.11262472

left   ...       0.05085393    -464.56158677
centre ...       0.10170787    -464.60707088
right  ...       0.21433258    -464.64854620
new    ...       0.21523144    -464.64855297

__s__    ...       0.00089886

 ALPHA AFTER:   0.21523143813216478     
  Cycle:     41 Energy:      -464.648553  Gnorm:      0.549213  CPU:    0.205
 Line minimisation2
 ALPHA BEFORE:   0.21523143813216478     
  ** Opt : line minimisation
left   ...       0.00000000    -464.64855297
centre ...       0.05380786    -464.68313973
right  ...       0.10761572    -464.71186168

left   ...       0.00000000    -464.64855297
centre ...       0.05380786    -464.68313973
right  ...       0.10761572    -464.71186168
new    ...       0.34422767    -464.76760706

__s__    ...       0.23661195

left   ...       0.05380786    -464.68313973
centre ...       0.10761572    -464.71186168
right  ...       0.34422767    -464.76760706
new    ...       0.34065159    -464.76763014

__s__    ...      -0.00357608

 ALPHA AFTER:   0.34065159036403153     
  Cycle:     42 Energy:      -464.767630  Gnorm:      0.559665  CPU:    0.210
 Line minimisation2
 ALPHA BEFORE:   0.34065159036403153     
  ** Opt : line minimisation
left   ...       0.00000000    -464.76763014
centre ...       0.08516290    -464.82016840
right  ...       0.17032580    -464.85493450

left   ...       0.00000000    -464.76763014
centre ...       0.08516290    -464.82016840
right  ...       0.17032580    -464.85493450
new    ...       0.29434106    -464.87305169

__s__    ...       0.12401527

 ALPHA AFTER:   0.29434106266164339     
  Cycle:     43 Energy:      -464.873052  Gnorm:      0.483124  CPU:    0.214
 Line minimisation2
 ALPHA BEFORE:   0.29434106266164339     
  ** Opt : line minimisation
left   ...       0.00000000    -464.87305169
centre ...       0.07358527    -464.90742362
right  ...       0.14717053    -464.93262530

left   ...       0.00000000    -464.87305169
centre ...       0.07358527    -464.90742362
right  ...       0.14717053    -464.93262530
new    ...       0.31260486    -464.95683778

__s__    ...       0.16543433

left   ...       0.07358527    -464.90742362
centre ...       0.14717053    -464.93262530
right  ...       0.31260486    -464.95683778
new    ...       0.31907091    -464.95682349

__s__    ...       0.00646605

 ALPHA AFTER:   0.31260485975408436     
  Cycle:     44 Energy:      -464.956838  Gnorm:      0.476092  CPU:    0.219
 Line minimisation2
 ALPHA BEFORE:   0.31260485975408436     
  ** Opt : line minimisation
left   ...       0.00000000    -464.95683778
centre ...       0.07815121    -464.99297186
right  ...       0.15630243    -465.01866188

left   ...       0.00000000    -464.95683778
centre ...       0.07815121    -464.99297186
right  ...       0.15630243    -465.01866188
new    ...       0.30946111    -465.03902346

__s__    ...       0.15315868

left   ...       0.07815121    -464.99297186
centre ...       0.15630243    -465.01866188
right  ...       0.30946111    -465.03902346
new    ...       0.31141818    -465.03904322

__s__    ...       0.00195706

 ALPHA AFTER:   0.31141817684740442     
  Cycle:     45 Energy:      -465.039043  Gnorm:      0.617464  CPU:    0.224
 Perform trimming
 Line minimisation2
 ALPHA BEFORE:   0.31141817684740442     
  ** Opt : line minimisation
left   ...       0.00000000    -465.03904322
centre ...       0.07785454    -465.08928255
right  ...       0.15570909    -465.12654201

left   ...       0.00000000    -465.03904322
centre ...       0.07785454    -465.08928255
right  ...       0.15570909    -465.12654201
new    ...       0.34026769    -465.16322657

__s__    ...       0.18455860

left   ...       0.07785454    -465.08928255
centre ...       0.15570909    -465.12654201
right  ...       0.34026769    -465.16322657
new    ...       0.34119428    -465.16321697

__s__    ...       0.00092660

 ALPHA AFTER:   0.34026768502167765     
  Cycle:     46 Energy:      -465.163227  Gnorm:      0.508702  CPU:    0.229
 Line minimisation2
 ALPHA BEFORE:   0.34026768502167765     
  ** Opt : line minimisation
left   ...       0.00000000    -465.16322657
centre ...       0.08506692    -465.20308197
right  ...       0.17013384    -465.22009402

left   ...       0.00000000    -465.16322657
centre ...       0.08506692    -465.20308197
right  ...       0.17013384    -465.22009402
new    ...       0.19095195    -465.22077123

__s__    ...       0.02081810

 ALPHA AFTER:   0.19095194688440839     
  Cycle:     47 Energy:      -465.220771  Gnorm:      0.370663  CPU:    0.233
 Line minimisation2
 ALPHA BEFORE:   0.19095194688440839     
  ** Opt : line minimisation
left   ...       0.00000000    -465.22077123
centre ...       0.04773799    -465.23534847
right  ...       0.09547597    -465.24911430

left   ...       0.00000000    -465.22077123
centre ...       0.04773799    -465.23534847
right  ...       0.09547597    -465.24911430
new    ...       0.88149299    -465.31128637

__s__    ...       0.78601701

left   ...       0.04773799    -465.23534847
centre ...       0.09547597    -465.24911430
right  ...       0.88149299    -465.31128637
new    ...       0.64605549    -465.32479163

__s__    ...      -0.23543750

 ALPHA AFTER:   0.64605548883949671     
  Cycle:     48 Energy:      -465.324792  Gnorm:      0.407420  CPU:    0.238
 Line minimisation2
 ALPHA BEFORE:   0.64605548883949671     
  ** Opt : line minimisation
left   ...       0.00000000    -465.32479163
centre ...       0.16151387    -465.35796549
right  ...       0.32302774    -465.33366030

left   ...       0.00000000    -465.32479163
centre ...       0.16151387    -465.35796549
right  ...       0.32302774    -465.33366030
new    ...       0.17397417    -465.35812168

__s__    ...      -0.14905357

left   ...       0.16151387    -465.35796549
centre ...       0.17397417    -465.35812168
right  ...       0.32302774    -465.33366030
new    ...       0.17347474    -465.35812200

__s__    ...      -0.00049943

 ALPHA AFTER:   0.17347474166729604     
  Cycle:     49 Energy:      -465.358122  Gnorm:      0.368742  CPU:    0.243
 Line minimisation2
 ALPHA BEFORE:   0.17347474166729604     
  ** Opt : line minimisation
left   ...       0.00000000    -465.35812200
centre ...       0.04336869    -465.36951200
right  ...       0.08673737    -465.37639235

left   ...       0.00000000    -465.35812200
centre ...       0.04336869    -465.36951200
right  ...       0.08673737    -465.37639235
new    ...       0.13122053    -465.37879181

__s__    ...       0.04448316

 ALPHA AFTER:   0.13122053029051947     
  Cycle:     50 Energy:      -465.378792  Gnorm:      0.299601  CPU:    0.247
 Line minimisation2
 ALPHA BEFORE:   0.13122053029051947     
  ** Opt : line minimisation
left   ...       0.00000000    -465.37879181
centre ...       0.03280513    -465.38536390
right  ...       0.06561027    -465.39140829

left   ...       0.00000000    -465.37879181
centre ...       0.03280513    -465.38536390
right  ...       0.06561027    -465.39140829
new    ...       0.42496595    -465.42308926

__s__    ...       0.35935568

left   ...       0.03280513    -465.38536390
centre ...       0.06561027    -465.39140829
right  ...       0.42496595    -465.42308926
new    ...       0.42518571    -465.42308921

__s__    ...       0.00021976

 ALPHA AFTER:   0.42496594856458492     
  Cycle:     51 Energy:      -465.423089  Gnorm:      0.278537  CPU:    0.252
 Line minimisation2
 ALPHA BEFORE:   0.42496594856458492     
  ** Opt : line minimisation
left   ...       0.00000000    -465.42308926
centre ...       0.10624149    -465.43956004
right  ...       0.21248297    -465.45089129

left   ...       0.00000000    -465.42308926
centre ...       0.10624149    -465.43956004
right  ...       0.21248297    -465.45089129
new    ...       0.39359552    -465.45833794

__s__    ...       0.18111254

left   ...       0.10624149    -465.43956004
centre ...       0.21248297    -465.45089129
right  ...       0.39359552    -465.45833794
new    ...       0.39317497    -465.45833801

__s__    ...      -0.00042055

 ALPHA AFTER:   0.39317496589303463     
  Cycle:     52 Energy:      -465.458338  Gnorm:      0.347922  CPU:    0.257
 Perform trimming
 Line minimisation2
 ALPHA BEFORE:   0.39317496589303463     
  ** Opt : line minimisation
left   ...       0.00000000    -465.45833801
centre ...       0.09829374    -465.47954562
right  ...       0.19658748    -465.49738289

left   ...       0.00000000    -465.45833801
centre ...       0.09829374    -465.47954562
right  ...       0.19658748    -465.49738289
new    ...       0.66765124    -465.52788232

__s__    ...       0.47106375

left   ...       0.09829374    -465.47954562
centre ...       0.19658748    -465.49738289
right  ...       0.66765124    -465.52788232
new    ...       0.59002961    -465.52914888

__s__    ...      -0.07762163

 ALPHA AFTER:   0.59002961156985712     
  Cycle:     53 Energy:      -465.529149  Gnorm:      0.381890  CPU:    0.262
 Line minimisation2
 ALPHA BEFORE:   0.59002961156985712     
  ** Opt : line minimisation
left   ...       0.00000000    -465.52914888
centre ...       0.14750740    -465.57057638
right  ...       0.29501481    -465.59584360

left   ...       0.00000000    -465.52914888
centre ...       0.14750740    -465.57057638
right  ...       0.29501481    -465.59584360
new    ...       0.45189479    -465.60491311

__s__    ...       0.15687999

 ALPHA AFTER:   0.45189479194915722     
  Cycle:     54 Energy:      -465.604913  Gnorm:      0.473920  CPU:    0.266
 Perform trimming
 Line minimisation2
 ALPHA BEFORE:   0.45189479194915722     
  ** Opt : line minimisation
left   ...       0.00000000    -465.60491311
centre ...       0.11297370    -465.64073263
right  ...       0.22594740    -465.64713466

left   ...       0.00000000    -465.60491311
centre ...       0.11297370    -465.64073263
right  ...       0.22594740    -465.64713466
new    ...       0.19404665    -465.64821200

__s__    ...      -0.03190075

 ALPHA AFTER:   0.19404665085444125     
  Cycle:     55 Energy:      -465.648212  Gnorm:      0.379593  CPU:    0.270
 Line minimisation2
 ALPHA BEFORE:   0.19404665085444125     
  ** Opt : line minimisation
left   ...       0.00000000    -465.64821200
centre ...       0.04851166    -465.66409036
right  ...       0.09702333    -465.67826404

left   ...       0.00000000    -465.64821200
centre ...       0.04851166    -465.66409036
right  ...       0.09702333    -465.67826404
new    ...       0.47612397    -465.74282037

__s__    ...       0.37910065

left   ...       0.04851166    -465.66409036
centre ...       0.09702333    -465.67826404
right  ...       0.47612397    -465.74282037
new    ...       0.58529281    -465.74639736

__s__    ...       0.10916883

 ALPHA AFTER:   0.58529280594790944     
  Cycle:     56 Energy:      -465.746397  Gnorm:      0.467131  CPU:    0.275
 Perform trimming
 Line minimisation2
 ALPHA BEFORE:   0.58529280594790944     
  ** Opt : line minimisation
left   ...       0.00000000    -465.74639736
centre ...       0.14632320    -465.79539452
right  ...       0.29264640    -465.82128526

left   ...       0.00000000    -465.74639736
centre ...       0.14632320    -465.79539452
right  ...       0.29264640    -465.82128526
new    ...       0.38344002    -465.82695499

__s__    ...       0.09079361

 ALPHA AFTER:   0.38344001747499556     
  Cycle:     57 Energy:      -465.826955  Gnorm:      0.507323  CPU:    0.279
 Line minimisation2
 ALPHA BEFORE:   0.38344001747499556     
  ** Opt : line minimisation
left   ...       0.00000000    -465.82695499
centre ...       0.09586000    -465.87874115
right  ...       0.19172001    -465.91591831

left   ...       0.00000000    -465.82695499
centre ...       0.09586000    -465.87874115
right  ...       0.19172001    -465.91591831
new    ...       0.38773599    -465.94567881

__s__    ...       0.19601598

left   ...       0.09586000    -465.87874115
centre ...       0.19172001    -465.91591831
right  ...       0.38773599    -465.94567881
new    ...       0.38361455    -465.94569988

__s__    ...      -0.00412144

 ALPHA AFTER:   0.38361455104597336     
  Cycle:     58 Energy:      -465.945700  Gnorm:      0.567140  CPU:    0.284
 Perform trimming
 Line minimisation2
 ALPHA BEFORE:   0.38361455104597336     
  ** Opt : line minimisation
left   ...       0.00000000    -465.94569988
centre ...       0.09590364    -466.00390374
right  ...       0.19180728    -466.03994877

left   ...       0.00000000    -465.94569988
centre ...       0.09590364    -466.00390374
right  ...       0.19180728    -466.03994877
new    ...       0.29985868    -466.05257081

__s__    ...       0.10805140

 ALPHA AFTER:   0.29985867857213522     
  Cycle:     59 Energy:      -466.052571  Gnorm:      0.645982  CPU:    0.288
 Line minimisation2
 ALPHA BEFORE:   0.29985867857213522     
  ** Opt : line minimisation
left   ...       0.00000000    -466.05257081
centre ...       0.07496467    -466.10415335
right  ...       0.14992934    -466.11282802

left   ...       0.00000000    -466.05257081
centre ...       0.07496467    -466.10415335
right  ...       0.14992934    -466.11282802
new    ...       0.12760259    -466.11472423

__s__    ...      -0.02232675

 ALPHA AFTER:   0.12760259208706914     
  Cycle:     60 Energy:      -466.114724  Gnorm:      0.423929  CPU:    0.292
 Line minimisation2
 ALPHA BEFORE:   0.12760259208706914     
  ** Opt : line minimisation
left   ...       0.00000000    -466.11472423
centre ...       0.03190065    -466.12714255
right  ...       0.06380130    -466.13774166

left   ...       0.00000000    -466.11472423
centre ...       0.03190065    -466.12714255
right  ...       0.06380130    -466.13774166
new    ...       0.23371108    -466.16351613

__s__    ...       0.16990978

left   ...       0.03190065    -466.12714255
centre ...       0.06380130    -466.13774166
right  ...       0.23371108    -466.16351613
new    ...       0.23353098    -466.16351642

__s__    ...      -0.00018010

 ALPHA AFTER:   0.23353097691488295     
  Cycle:     61 Energy:      -466.163516  Gnorm:      0.322746  CPU:    0.297
 Line minimisation2
 ALPHA BEFORE:   0.23353097691488295     
  ** Opt : line minimisation
left   ...       0.00000000    -466.16351642
centre ...       0.05838274    -466.17652075
right  ...       0.11676549    -466.18810247

left   ...       0.00000000    -466.16351642
centre ...       0.05838274    -466.17652075
right  ...       0.11676549    -466.18810247
new    ...       0.56287368    -466.22377216

__s__    ...       0.44610819

left   ...       0.05838274    -466.17652075
centre ...       0.11676549    -466.18810247
right  ...       0.56287368    -466.22377216
new    ...       0.51013912    -466.22432791

__s__    ...      -0.05273456

 ALPHA AFTER:   0.51013912176710341     
  Cycle:     62 Energy:      -466.224328  Gnorm:      0.339508  CPU:    0.302
 Line minimisation2
 ALPHA BEFORE:   0.51013912176710341     
  ** Opt : line minimisation
left   ...       0.00000000    -466.22432791
centre ...       0.12753478    -466.24966498
right  ...       0.25506956    -466.25637748

left   ...       0.00000000    -466.22432791
centre ...       0.12753478    -466.24966498
right  ...       0.25506956    -466.25637748
new    ...       0.23726719    -466.25655617

__s__    ...      -0.01780237

 ALPHA AFTER:   0.23726718853533557     
  Cycle:     63 Energy:      -466.256556  Gnorm:      0.274356  CPU:    0.306
 Line minimisation2
 ALPHA BEFORE:   0.23726718853533557     
  ** Opt : line minimisation
left   ...       0.00000000    -466.25655617
centre ...       0.05931680    -466.26667979
right  ...       0.11863359    -466.27534374

left   ...       0.00000000    -466.25655617
centre ...       0.05931680    -466.26667979
right  ...       0.11863359    -466.27534374
new    ...       0.44105075    -466.29572549

__s__    ...       0.32241716

left   ...       0.05931680    -466.26667979
centre ...       0.11863359    -466.27534374
right  ...       0.44105075    -466.29572549
new    ...       0.42548148    -466.29574866

__s__    ...      -0.01556927

 ALPHA AFTER:   0.42548148174103639     
  Cycle:     64 Energy:      -466.295749  Gnorm:      0.274046  CPU:    0.311
 Line minimisation2
 ALPHA BEFORE:   0.42548148174103639     
  ** Opt : line minimisation
left   ...       0.00000000    -466.29574866
centre ...       0.10637037    -466.31198355
right  ...       0.21274074    -466.32246122

left   ...       0.00000000    -466.29574866
centre ...       0.10637037    -466.31198355
right  ...       0.21274074    -466.32246122
new    ...       0.35314103    -466.32769962

__s__    ...       0.14040028

 ALPHA AFTER:   0.35314102568276035     
  Cycle:     65 Energy:      -466.327700  Gnorm:      0.394736  CPU:    0.315
 Perform trimming
 Line minimisation2
 ALPHA BEFORE:   0.35314102568276035     
  ** Opt : line minimisation
left   ...       0.00000000    -466.32769962
centre ...       0.08828526    -466.34727341
right  ...       0.17657051    -466.36215023

left   ...       0.00000000    -466.32769962
centre ...       0.08828526    -466.34727341
right  ...       0.17657051    -466.36215023
new    ...       0.41205514    -466.37688602

__s__    ...       0.23548463

left   ...       0.08828526    -466.34727341
centre ...       0.17657051    -466.36215023
right  ...       0.41205514    -466.37688602
new    ...       0.38994191    -466.37692861

__s__    ...      -0.02211323

 ALPHA AFTER:   0.38994191286862062     
  Cycle:     66 Energy:      -466.376929  Gnorm:      0.367049  CPU:    0.320
 Line minimisation2
 ALPHA BEFORE:   0.38994191286862062     
  ** Opt : line minimisation
left   ...       0.00000000    -466.37692861
centre ...       0.09748548    -466.40046949
right  ...       0.19497096    -466.41003843

left   ...       0.00000000    -466.37692861
centre ...       0.09748548    -466.40046949
right  ...       0.19497096    -466.41003843
new    ...       0.21299287    -466.41030651

__s__    ...       0.01802191

 ALPHA AFTER:   0.21299286821849886     
  Cycle:     67 Energy:      -466.410307  Gnorm:      0.262630  CPU:    0.324
 Line minimisation2
 ALPHA BEFORE:   0.21299286821849886     
  ** Opt : line minimisation
left   ...       0.00000000    -466.41030651
centre ...       0.05324822    -466.41821503
right  ...       0.10649643    -466.42492028

left   ...       0.00000000    -466.41030651
centre ...       0.05324822    -466.41821503
right  ...       0.10649643    -466.42492028
new    ...       0.37659964    -466.43958812

__s__    ...       0.27010321

left   ...       0.05324822    -466.41821503
centre ...       0.10649643    -466.42492028
right  ...       0.37659964    -466.43958812
new    ...       0.36413598    -466.43961905

__s__    ...      -0.01246366

 ALPHA AFTER:   0.36413598490536742     
  Cycle:     68 Energy:      -466.439619  Gnorm:      0.287070  CPU:    0.330
 Line minimisation2
 ALPHA BEFORE:   0.36413598490536742     
  ** Opt : line minimisation
left   ...       0.00000000    -466.43961905
centre ...       0.09103400    -466.45301221
right  ...       0.18206799    -466.45887410

left   ...       0.00000000    -466.43961905
centre ...       0.09103400    -466.45301221
right  ...       0.18206799    -466.45887410
new    ...       0.20740650    -466.45935424

__s__    ...       0.02533850

 ALPHA AFTER:   0.20740649567898692     
  Cycle:     69 Energy:      -466.459354  Gnorm:      0.268964  CPU:    0.334
 Line minimisation2
 ALPHA BEFORE:   0.20740649567898692     
  ** Opt : line minimisation
left   ...       0.00000000    -466.45935424
centre ...       0.05185162    -466.46647249
right  ...       0.10370325    -466.47100629

left   ...       0.00000000    -466.45935424
centre ...       0.05185162    -466.46647249
right  ...       0.10370325    -466.47100629
new    ...       0.16873873    -466.47277607

__s__    ...       0.06503548

 ALPHA AFTER:   0.16873872952036001     
  Cycle:     70 Energy:      -466.472776  Gnorm:      0.231971  CPU:    0.338
 Line minimisation2
 ALPHA BEFORE:   0.16873872952036001     
  ** Opt : line minimisation
left   ...       0.00000000    -466.47277607
centre ...       0.04218468    -466.47732961
right  ...       0.08436936    -466.48093608

left   ...       0.00000000    -466.47277607
centre ...       0.04218468    -466.47732961
right  ...       0.08436936    -466.48093608
new    ...       0.22391872    -466.48622799

__s__    ...       0.13954936

left   ...       0.04218468    -466.47732961
centre ...       0.08436936    -466.48093608
right  ...       0.22391872    -466.48622799
new    ...       0.22657919    -466.48623116

__s__    ...       0.00266047

 ALPHA AFTER:   0.22657919497206347     
  Cycle:     71 Energy:      -466.486231  Gnorm:      0.204859  CPU:    0.343
 Line minimisation2
 ALPHA BEFORE:   0.22657919497206347     
  ** Opt : line minimisation
left   ...       0.00000000    -466.48623116
centre ...       0.05664480    -466.49134975
right  ...       0.11328960    -466.49571548

left   ...       0.00000000    -466.48623116
centre ...       0.05664480    -466.49134975
right  ...       0.11328960    -466.49571548
new    ...       0.41343785    -466.50647351

__s__    ...       0.30014825

left   ...       0.05664480    -466.49134975
centre ...       0.11328960    -466.49571548
right  ...       0.41343785    -466.50647351
new    ...       0.41845032    -466.50647115

__s__    ...       0.00501247

 ALPHA AFTER:   0.41343784793576999     
  Cycle:     72 Energy:      -466.506474  Gnorm:      0.256442  CPU:    0.348
 Perform trimming
 Line minimisation2
 ALPHA BEFORE:   0.41343784793576999     
  ** Opt : line minimisation
left   ...       0.00000000    -466.50647351
centre ...       0.10335946    -466.51775422
right  ...       0.20671892    -466.52614566

left   ...       0.00000000    -466.50647351
centre ...       0.10335946    -466.51775422
right  ...       0.20671892    -466.52614566
new    ...       0.45523024    -466.53501936

__s__    ...       0.24851132

left   ...       0.10335946    -466.51775422
centre ...       0.20671892    -466.52614566
right  ...       0.45523024    -466.53501936
new    ...       0.46910739    -466.53500737

__s__    ...       0.01387715

 ALPHA AFTER:   0.45523024476989388     
  Cycle:     73 Energy:      -466.535019  Gnorm:      0.279777  CPU:    0.353
 Line minimisation2
 ALPHA BEFORE:   0.45523024476989388     
  ** Opt : line minimisation
left   ...       0.00000000    -466.53501936
centre ...       0.11380756    -466.55066729
right  ...       0.22761512    -466.55488536

left   ...       0.00000000    -466.53501936
centre ...       0.11380756    -466.55066729
right  ...       0.22761512    -466.55488536
new    ...       0.21271086    -466.55489113

__s__    ...      -0.01490426

 ALPHA AFTER:   0.21271086256298644     
  Cycle:     74 Energy:      -466.554891  Gnorm:      0.283654  CPU:    0.357
 Line minimisation2
 ALPHA BEFORE:   0.21271086256298644     
  ** Opt : line minimisation
left   ...       0.00000000    -466.55489113
centre ...       0.05317772    -466.56410330
right  ...       0.10635543    -466.57136240

left   ...       0.00000000    -466.55489113
centre ...       0.05317772    -466.56410330
right  ...       0.10635543    -466.57136240
new    ...       0.27741541    -466.58154359

__s__    ...       0.17105998

left   ...       0.05317772    -466.56410330
centre ...       0.10635543    -466.57136240
right  ...       0.27741541    -466.58154359
new    ...       0.27856259    -466.58154409

__s__    ...       0.00114718

 ALPHA AFTER:   0.27856259064690819     
  Cycle:     75 Energy:      -466.581544  Gnorm:      0.245437  CPU:    0.362
 Line minimisation2
 ALPHA BEFORE:   0.27856259064690819     
  ** Opt : line minimisation
left   ...       0.00000000    -466.58154409
centre ...       0.06964065    -466.59013341
right  ...       0.13928130    -466.59620959

left   ...       0.00000000    -466.58154409
centre ...       0.06964065    -466.59013341
right  ...       0.13928130    -466.59620959
new    ...       0.27283622    -466.60159850

__s__    ...       0.13355493

left   ...       0.06964065    -466.59013341
centre ...       0.13928130    -466.59620959
right  ...       0.27283622    -466.60159850
new    ...       0.29346549    -466.60165067

__s__    ...       0.02062927

 ALPHA AFTER:   0.29346549054167986     
  Cycle:     76 Energy:      -466.601651  Gnorm:      0.287043  CPU:    0.367
 Line minimisation2
 ALPHA BEFORE:   0.29346549054167986     
  ** Opt : line minimisation
left   ...       0.00000000    -466.60165067
centre ...       0.07336637    -466.61495640
right  ...       0.14673275    -466.62627605

left   ...       0.00000000    -466.60165067
centre ...       0.07336637    -466.61495640
right  ...       0.14673275    -466.62627605
new    ...       0.52819867    -466.65558141

__s__    ...       0.38146593

left   ...       0.07336637    -466.61495640
centre ...       0.14673275    -466.62627605
right  ...       0.52819867    -466.65558141
new    ...       0.56299339    -466.65576386

__s__    ...       0.03479472

 ALPHA AFTER:   0.56299339126220249     
  Cycle:     77 Energy:      -466.655764  Gnorm:      0.342683  CPU:    0.372
 Line minimisation2
 ALPHA BEFORE:   0.56299339126220249     
  ** Opt : line minimisation
left   ...       0.00000000    -466.65576386
centre ...       0.14074835    -466.67991213
right  ...       0.28149670    -466.67530916

left   ...       0.00000000    -466.65576386
centre ...       0.14074835    -466.67991213
right  ...       0.28149670    -466.67530916
new    ...       0.18858924    -466.68170465

__s__    ...      -0.09290745

left   ...       0.14074835    -466.67991213
centre ...       0.18858924    -466.68170465
right  ...       0.28149670    -466.67530916
new    ...       0.18947284    -466.68170371

__s__    ...       0.00088359

 ALPHA AFTER:   0.18858924426727622     
  Cycle:     78 Energy:      -466.681705  Gnorm:      0.372212  CPU:    0.377
 Line minimisation2
 ALPHA BEFORE:   0.18858924426727622     
  ** Opt : line minimisation
left   ...       0.00000000    -466.68170465
centre ...       0.04714731    -466.69585519
right  ...       0.09429462    -466.70824309

left   ...       0.00000000    -466.68170465
centre ...       0.04714731    -466.69585519
right  ...       0.09429462    -466.70824309
new    ...       0.40207352    -466.74548553

__s__    ...       0.30777890

left   ...       0.04714731    -466.69585519
centre ...       0.09429462    -466.70824309
right  ...       0.40207352    -466.74548553
new    ...       0.39967959    -466.74548525

__s__    ...      -0.00239393

 ALPHA AFTER:   0.40207352033070320     
  Cycle:     79 Energy:      -466.745486  Gnorm:      0.365869  CPU:    0.382
 Line minimisation2
 ALPHA BEFORE:   0.40207352033070320     
  ** Opt : line minimisation
left   ...       0.00000000    -466.74548553
centre ...       0.10051838    -466.77041537
right  ...       0.20103676    -466.78181639

left   ...       0.00000000    -466.74548553
centre ...       0.10051838    -466.77041537
right  ...       0.20103676    -466.78181639
new    ...       0.23548654    -466.78258851

__s__    ...       0.03444978

 ALPHA AFTER:   0.23548654202720404     
  Cycle:     80 Energy:      -466.782589  Gnorm:      0.217800  CPU:    0.386
 Line minimisation2
 ALPHA BEFORE:   0.23548654202720404     
  ** Opt : line minimisation
left   ...       0.00000000    -466.78258851
centre ...       0.05887164    -466.78834100
right  ...       0.11774327    -466.79348760

left   ...       0.00000000    -466.78258851
centre ...       0.05887164    -466.78834100
right  ...       0.11774327    -466.79348760
new    ...       0.58837622    -466.80717923

__s__    ...       0.47063295

left   ...       0.05887164    -466.78834100
centre ...       0.11774327    -466.79348760
right  ...       0.58837622    -466.80717923
new    ...       0.48510709    -466.80840037

__s__    ...      -0.10326913

 ALPHA AFTER:   0.48510708955860515     
  Cycle:     81 Energy:      -466.808400  Gnorm:      0.341386  CPU:    0.391
 Perform trimming
 Line minimisation2
 ALPHA BEFORE:   0.48510708955860515     
  ** Opt : line minimisation
left   ...       0.00000000    -466.80840037
centre ...       0.12127677    -466.82334065
right  ...       0.24255354    -466.83312779

left   ...       0.00000000    -466.80840037
centre ...       0.12127677    -466.82334065
right  ...       0.24255354    -466.83312779
new    ...       0.41225086    -466.83806635

__s__    ...       0.16969731

 ALPHA AFTER:   0.41225085586536125     
  Cycle:     82 Energy:      -466.838066  Gnorm:      0.253221  CPU:    0.396
 Line minimisation2
 ALPHA BEFORE:   0.41225085586536125     
  ** Opt : line minimisation
left   ...       0.00000000    -466.83806635
centre ...       0.10306271    -466.84886891
right  ...       0.20612543    -466.85069035

left   ...       0.00000000    -466.83806635
centre ...       0.10306271    -466.84886891
right  ...       0.20612543    -466.85069035
new    ...       0.17549606    -466.85116660

__s__    ...      -0.03062937

 ALPHA AFTER:   0.17549606225450873     
  Cycle:     83 Energy:      -466.851167  Gnorm:      0.216495  CPU:    0.400
 Line minimisation2
 ALPHA BEFORE:   0.17549606225450873     
  ** Opt : line minimisation
left   ...       0.00000000    -466.85116660
centre ...       0.04387402    -466.85555341
right  ...       0.08774803    -466.85929353

left   ...       0.00000000    -466.85116660
centre ...       0.04387402    -466.85555341
right  ...       0.08774803    -466.85929353
new    ...       0.31955313    -466.86824152

__s__    ...       0.23180510

left   ...       0.04387402    -466.85555341
centre ...       0.08774803    -466.85929353
right  ...       0.31955313    -466.86824152
new    ...       0.31771943    -466.86826135

__s__    ...      -0.00183370

 ALPHA AFTER:   0.31771942982303847     
  Cycle:     84 Energy:      -466.868261  Gnorm:      0.191352  CPU:    0.405
 Line minimisation2
 ALPHA BEFORE:   0.31771942982303847     
  ** Opt : line minimisation
left   ...       0.00000000    -466.86826135
centre ...       0.07942986    -466.87401847
right  ...       0.15885971    -466.87845373

left   ...       0.00000000    -466.86826135
centre ...       0.07942986    -466.87401847
right  ...       0.15885971    -466.87845373
new    ...       0.38565767    -466.88283312

__s__    ...       0.22679796

left   ...       0.07942986    -466.87401847
centre ...       0.15885971    -466.87845373
right  ...       0.38565767    -466.88283312
new    ...       0.35319636    -466.88299176

__s__    ...      -0.03246131

 ALPHA AFTER:   0.35319636101322732     
  Cycle:     85 Energy:      -466.882992  Gnorm:      0.220859  CPU:    0.410
 Perform trimming
 Line minimisation2
 ALPHA BEFORE:   0.35319636101322732     
  ** Opt : line minimisation
left   ...       0.00000000    -466.88299176
centre ...       0.08829909    -466.89162711
right  ...       0.17659818    -466.89817301

left   ...       0.00000000    -466.88299176
centre ...       0.08829909    -466.89162711
right  ...       0.17659818    -466.89817301
new    ...       0.40907640    -466.90383587

__s__    ...       0.23247822

left   ...       0.08829909    -466.89162711
centre ...       0.17659818    -466.89817301
right  ...       0.40907640    -466.90383587
new    ...       0.37132835    -466.90397359

__s__    ...      -0.03774805

 ALPHA AFTER:   0.37132835343135723     
  Cycle:     86 Energy:      -466.903974  Gnorm:      0.251849  CPU:    0.415
 Line minimisation2
 ALPHA BEFORE:   0.37132835343135723     
  ** Opt : line minimisation
left   ...       0.00000000    -466.90397359
centre ...       0.09283209    -466.91517780
right  ...       0.18566418    -466.92062431

left   ...       0.00000000    -466.90397359
centre ...       0.09283209    -466.91517780
right  ...       0.18566418    -466.92062431
new    ...       0.22706291    -466.92123804

__s__    ...       0.04139874

 ALPHA AFTER:   0.22706291289416269     
  Cycle:     87 Energy:      -466.921238  Gnorm:      0.252786  CPU:    0.419
 Line minimisation2
 ALPHA BEFORE:   0.22706291289416269     
  ** Opt : line minimisation
left   ...       0.00000000    -466.92123804
centre ...       0.05676573    -466.92858952
right  ...       0.11353146    -466.93365772

left   ...       0.00000000    -466.92123804
centre ...       0.05676573    -466.92858952
right  ...       0.11353146    -466.93365772
new    ...       0.21115121    -466.93758021

__s__    ...       0.09761975

left   ...       0.05676573    -466.92858952
centre ...       0.11353146    -466.93365772
right  ...       0.21115121    -466.93758021
new    ...       0.22551065    -466.93762010

__s__    ...       0.01435945

 ALPHA AFTER:   0.22551065488731420     
  Cycle:     88 Energy:      -466.937620  Gnorm:      0.206460  CPU:    0.424
 Line minimisation2
 ALPHA BEFORE:   0.22551065488731420     
  ** Opt : line minimisation
left   ...       0.00000000    -466.93762010
centre ...       0.05637766    -466.94266255
right  ...       0.11275533    -466.94686463

left   ...       0.00000000    -466.93762010
centre ...       0.05637766    -466.94266255
right  ...       0.11275533    -466.94686463
new    ...       0.36647134    -466.95528211

__s__    ...       0.25371601

left   ...       0.05637766    -466.94266255
centre ...       0.11275533    -466.94686463
right  ...       0.36647134    -466.95528211
new    ...       0.36399014    -466.95528309

__s__    ...      -0.00248120

 ALPHA AFTER:   0.36399014233648230     
  Cycle:     89 Energy:      -466.955283  Gnorm:      0.300136  CPU:    0.430
 Line minimisation2
 ALPHA BEFORE:   0.36399014233648230     
  ** Opt : line minimisation
left   ...       0.00000000    -466.95528309
centre ...       0.09099754    -466.96822310
right  ...       0.18199507    -466.96900814

left   ...       0.00000000    -466.95528309
centre ...       0.09099754    -466.96822310
right  ...       0.18199507    -466.96900814
new    ...       0.14237352    -466.96995235

__s__    ...      -0.03962155

 ALPHA AFTER:   0.14237351787962715     
  Cycle:     90 Energy:      -466.969952  Gnorm:      0.151571  CPU:    0.434
 Line minimisation2
 ALPHA BEFORE:   0.14237351787962715     
  ** Opt : line minimisation
left   ...       0.00000000    -466.96995235
centre ...       0.03559338    -466.97179349
right  ...       0.07118676    -466.97346523

left   ...       0.00000000    -466.96995235
centre ...       0.03559338    -466.97179349
right  ...       0.07118676    -466.97346523
new    ...       0.40463048    -466.98106008

__s__    ...       0.33344372

left   ...       0.03559338    -466.97179349
centre ...       0.07118676    -466.97346523
right  ...       0.40463048    -466.98106008
new    ...       0.41164436    -466.98105596

__s__    ...       0.00701388

 ALPHA AFTER:   0.40463048117399458     
  Cycle:     91 Energy:      -466.981060  Gnorm:      0.190889  CPU:    0.439
 Perform trimming
 Line minimisation2
 ALPHA BEFORE:   0.40463048117399458     
  ** Opt : line minimisation
left   ...       0.00000000    -466.98106008
centre ...       0.10115762    -466.98668677
right  ...       0.20231524    -466.99061325

left   ...       0.00000000    -466.98106008
centre ...       0.10115762    -466.98668677
right  ...       0.20231524    -466.99061325
new    ...       0.38535119    -466.99342161

__s__    ...       0.18303595

left   ...       0.10115762    -466.98668677
centre ...       0.20231524    -466.99061325
right  ...       0.38535119    -466.99342161
new    ...       0.38671849    -466.99342186

__s__    ...       0.00136730

 ALPHA AFTER:   0.38671848902023376     
  Cycle:     92 Energy:      -466.993422  Gnorm:      0.234509  CPU:    0.444
 Perform trimming
 Line minimisation2
 ALPHA BEFORE:   0.38671848902023376     
  ** Opt : line minimisation
left   ...       0.00000000    -466.99342186
centre ...       0.09667962    -467.00223282
right  ...       0.19335924    -467.00754072

left   ...       0.00000000    -466.99342186
centre ...       0.09667962    -467.00223282
right  ...       0.19335924    -467.00754072
new    ...       0.29150950    -467.00900213

__s__    ...       0.09815025

 ALPHA AFTER:   0.29150949556453659     
  Cycle:     93 Energy:      -467.009002  Gnorm:      0.227592  CPU:    0.448
 Line minimisation2
 ALPHA BEFORE:   0.29150949556453659     
  ** Opt : line minimisation
left   ...       0.00000000    -467.00900213
centre ...       0.07287737    -467.01655129
right  ...       0.14575475    -467.02148806

left   ...       0.00000000    -467.00900213
centre ...       0.07287737    -467.01655129
right  ...       0.14575475    -467.02148806
new    ...       0.24703633    -467.02504771

__s__    ...       0.10128158

left   ...       0.07287737    -467.01655129
centre ...       0.14575475    -467.02148806
right  ...       0.24703633    -467.02504771
new    ...       0.29029133    -467.02522580

__s__    ...       0.04325500

 ALPHA AFTER:   0.29029132680271069     
  Cycle:     94 Energy:      -467.025226  Gnorm:      0.227898  CPU:    0.453
 Line minimisation2
 ALPHA BEFORE:   0.29029132680271069     
  ** Opt : line minimisation
left   ...       0.00000000    -467.02522580
centre ...       0.07257283    -467.03272333
right  ...       0.14514566    -467.03916110

left   ...       0.00000000    -467.02522580
centre ...       0.07257283    -467.03272333
right  ...       0.14514566    -467.03916110
new    ...       0.54971944    -467.05315033

__s__    ...       0.40457378

left   ...       0.07257283    -467.03272333
centre ...       0.14514566    -467.03916110
right  ...       0.54971944    -467.05315033
new    ...       0.49983078    -467.05336685

__s__    ...      -0.04988867

 ALPHA AFTER:   0.49983077608482018     
  Cycle:     95 Energy:      -467.053367  Gnorm:      0.260640  CPU:    0.459
 Line minimisation2
 ALPHA BEFORE:   0.49983077608482018     
  ** Opt : line minimisation
left   ...       0.00000000    -467.05336685
centre ...       0.12495769    -467.06883651
right  ...       0.24991539    -467.07602839

left   ...       0.00000000    -467.05336685
centre ...       0.12495769    -467.06883651
right  ...       0.24991539    -467.07602839
new    ...       0.29600196    -467.07643644

__s__    ...       0.04608657

 ALPHA AFTER:   0.29600196233976561     
  Cycle:     96 Energy:      -467.076436  Gnorm:      0.344652  CPU:    0.463
 Perform trimming
 Line minimisation2
 ALPHA BEFORE:   0.29600196233976561     
  ** Opt : line minimisation
left   ...       0.00000000    -467.07643644
centre ...       0.07400049    -467.09220336
right  ...       0.14800098    -467.10575551

left   ...       0.00000000    -467.07643644
centre ...       0.07400049    -467.09220336
right  ...       0.14800098    -467.10575551
new    ...       0.56380991    -467.14098334

__s__    ...       0.41580893

left   ...       0.07400049    -467.09220336
centre ...       0.14800098    -467.10575551
right  ...       0.56380991    -467.14098334
new    ...       0.56673380    -467.14097687

__s__    ...       0.00292389

 ALPHA AFTER:   0.56380991079906628     
  Cycle:     97 Energy:      -467.140983  Gnorm:      0.443549  CPU:    0.471
 Perform trimming
 Line minimisation2
 ALPHA BEFORE:   0.56380991079906628     
  ** Opt : line minimisation
left   ...       0.00000000    -467.14098334
centre ...       0.14095248    -467.18275717
right  ...       0.28190496    -467.19533401

left   ...       0.00000000    -467.14098334
centre ...       0.14095248    -467.18275717
right  ...       0.28190496    -467.19533401
new    ...       0.27214516    -467.19529529

__s__    ...      -0.00975980

 ALPHA AFTER:   0.28190495539953314     
  Cycle:     98 Energy:      -467.195334  Gnorm:      0.460511  CPU:    0.478
 Line minimisation2
 ALPHA BEFORE:   0.28190495539953314     
  ** Opt : line minimisation
left   ...       0.00000000    -467.19533401
centre ...       0.07047624    -467.22398431
right  ...       0.14095248    -467.24399753

left   ...       0.00000000    -467.19533401
centre ...       0.07047624    -467.22398431
right  ...       0.14095248    -467.24399753
new    ...       0.26901692    -467.25852432

__s__    ...       0.12806445

left   ...       0.07047624    -467.22398431
centre ...       0.14095248    -467.24399753
right  ...       0.26901692    -467.25852432
new    ...       0.27101448    -467.25852164

__s__    ...       0.00199756

 ALPHA AFTER:   0.26901692333100524     
  Cycle:     99 Energy:      -467.258524  Gnorm:      0.448208  CPU:    0.484
 Line minimisation2
 ALPHA BEFORE:   0.26901692333100524     
  ** Opt : line minimisation
left   ...       0.00000000    -467.25852432
centre ...       0.06725423    -467.28403695
right  ...       0.13450846    -467.29843599

left   ...       0.00000000    -467.25852432
centre ...       0.06725423    -467.28403695
right  ...       0.13450846    -467.29843599
new    ...       0.18801760    -467.30195560

__s__    ...       0.05350913

 ALPHA AFTER:   0.18801759533354628     
  Cycle:    100 Energy:      -467.301956  Gnorm:      0.420789  CPU:    0.490
 Line minimisation2
 ALPHA BEFORE:   0.18801759533354628     
  ** Opt : line minimisation
left   ...       0.00000000    -467.30195560
centre ...       0.04700440    -467.31870960
right  ...       0.09400880    -467.33135601

left   ...       0.00000000    -467.30195560
centre ...       0.04700440    -467.31870960
right  ...       0.09400880    -467.33135601
new    ...       0.21522324    -467.34381579

__s__    ...       0.12121444

left   ...       0.04700440    -467.31870960
centre ...       0.09400880    -467.33135601
right  ...       0.21522324    -467.34381579
new    ...       0.20661843    -467.34390330

__s__    ...      -0.00860481

 ALPHA AFTER:   0.20661842922156082     
  Cycle:    101 Energy:      -467.343903  Gnorm:      0.328239  CPU:    0.497
 Line minimisation2
 ALPHA BEFORE:   0.20661842922156082     
  ** Opt : line minimisation
left   ...       0.00000000    -467.34390330
centre ...       0.05165461    -467.35593300
right  ...       0.10330921    -467.36692714

left   ...       0.00000000    -467.34390330
centre ...       0.05165461    -467.35593300
right  ...       0.10330921    -467.36692714
new    ...       0.62587904    -467.41074709

__s__    ...       0.52256982

left   ...       0.05165461    -467.35593300
[...]
 ALPHA BEFORE:   0.39811939844881161     
  ** Opt : line minimisation
left   ...       0.00000000    -471.45259606
centre ...       0.09952985    -471.45262999
right  ...       0.19905970    -471.45265950

left   ...       0.00000000    -471.45259606
centre ...       0.09952985    -471.45262999
right  ...       0.19905970    -471.45265950
new    ...       0.81500152    -471.45274398

__s__    ...       0.61594182

 ALPHA AFTER:   0.81500151945218380     
  Cycle:    305 Energy:      -471.452744  Gnorm:      0.014105  CPU:    1.967
 Perform trimming
 Line minimisation2
 ALPHA BEFORE:   0.81500151945218380     
  ** Opt : line minimisation
left   ...       0.00000000    -471.45274398
centre ...       0.20375038    -471.45280759
right  ...       0.40750076    -471.45283969

left   ...       0.00000000    -471.45274398
centre ...       0.20375038    -471.45280759
right  ...       0.40750076    -471.45283969
new    ...       0.51307511    -471.45284391

__s__    ...       0.10557435

 ALPHA AFTER:   0.51307510896704522     
  Cycle:    306 Energy:      -471.452844  Gnorm:      0.019984  CPU:    1.975
 Perform trimming
 Line minimisation2
 ALPHA BEFORE:   0.51307510896704522     
  ** Opt : line minimisation
left   ...       0.00000000    -471.45284391
centre ...       0.12826878    -471.45290656
right  ...       0.25653755    -471.45293567

left   ...       0.00000000    -471.45284391
centre ...       0.12826878    -471.45290656
right  ...       0.25653755    -471.45293567
new    ...       0.30376376    -471.45293795

__s__    ...       0.04722621

 ALPHA AFTER:   0.30376376182109543     
  Cycle:    307 Energy:      -471.452938  Gnorm:      0.015507  CPU:    1.982
 Line minimisation2
 ALPHA BEFORE:   0.30376376182109543     
  ** Opt : line minimisation
left   ...       0.00000000    -471.45293795
centre ...       0.07594094    -471.45297473
right  ...       0.15188188    -471.45298144

left   ...       0.00000000    -471.45293795
centre ...       0.07594094    -471.45297473
right  ...       0.15188188    -471.45298144
new    ...       0.13085545    -471.45297535

__s__    ...      -0.02102643

 ALPHA AFTER:   0.15188188091054772     
  Cycle:    308 Energy:      -471.452981  Gnorm:      0.010628  CPU:    1.990
 Line minimisation2
 ALPHA BEFORE:   0.15188188091054772     
  ** Opt : line minimisation
left   ...       0.00000000    -471.45298144
centre ...       0.03797047    -471.45299248
right  ...       0.07594094    -471.45300312

left   ...       0.00000000    -471.45298144
centre ...       0.03797047    -471.45299248
right  ...       0.07594094    -471.45300312
new    ...       1.07594094    -471.45296710

__s__    ...       1.00000000

left   ...       0.03797047    -471.45299248
centre ...       0.07594094    -471.45300312
right  ...       1.07594094    -471.45296710
new    ...       0.51684156    -471.45309793

__s__    ...      -0.55909938

left   ...       0.07594094    -471.45300312
centre ...       0.51684156    -471.45309793
right  ...       1.07594094    -471.45296710
new    ...       0.53583789    -471.45310082

__s__    ...       0.01899633

 ALPHA AFTER:   0.53583788758016426     
  Cycle:    309 Energy:      -471.453101  Gnorm:      0.009897  CPU:    2.001
 Line minimisation2
 ALPHA BEFORE:   0.53583788758016426     
  ** Opt : line minimisation
left   ...       0.00000000    -471.45310082
centre ...       0.13395947    -471.45312390
right  ...       0.26791894    -471.45313259

left   ...       0.00000000    -471.45310082
centre ...       0.13395947    -471.45312390
right  ...       0.26791894    -471.45313259
new    ...       0.28178713    -471.45313267

__s__    ...       0.01386818

 ALPHA AFTER:   0.28178712607266543     
  Cycle:    310 Energy:      -471.453133  Gnorm:      0.010433  CPU:    2.009
 Perform trimming
 Line minimisation2
 ALPHA BEFORE:   0.28178712607266543     
  ** Opt : line minimisation
left   ...       0.00000000    -471.45313267
centre ...       0.07044678    -471.45314912
right  ...       0.14089356    -471.45316386

left   ...       0.00000000    -471.45313267
centre ...       0.07044678    -471.45314912
right  ...       0.14089356    -471.45316386
new    ...       0.71547977    -471.45322054

__s__    ...       0.57458621

 ALPHA AFTER:   0.71547977063167523     
  Cycle:    311 Energy:      -471.453221  Gnorm:      0.020699  CPU:    2.017
 Perform trimming
 Line minimisation2
 ALPHA BEFORE:   0.71547977063167523     
  ** Opt : line minimisation
left   ...       0.00000000    -471.45322054
centre ...       0.17886994    -471.45327732
right  ...       0.35773989    -471.45332068

left   ...       0.00000000    -471.45322054
centre ...       0.17886994    -471.45327732
right  ...       0.35773989    -471.45332068
new    ...       0.84620700    -471.45337075

__s__    ...       0.48846711

 ALPHA AFTER:   0.84620699684598510     
  Cycle:    312 Energy:      -471.453371  Gnorm:      0.023110  CPU:    2.024
 Perform trimming
 Line minimisation2
 ALPHA BEFORE:   0.84620699684598510     
  ** Opt : line minimisation
left   ...       0.00000000    -471.45337075
centre ...       0.21155175    -471.45331496
right  ...      -0.21155175    -471.45301614

left   ...      -0.21155175    -471.45301614
centre ...       0.00000000    -471.45337075
right  ...       0.21155175    -471.45331496
new    ...       0.07701898    -471.45326640

__s__    ...       0.28857073

left   ...      -0.21155175    -471.45301614
centre ...       0.00000000    -471.45337075
right  ...       0.07701898    -471.45326640
new    ...      -0.02598442    -471.45333987

__s__    ...      -0.10300340

left   ...      -0.02598442    -471.45333987
centre ...       0.00000000    -471.45337075
right  ...       0.07701898    -471.45326640
new    ...       0.01107118    -471.45338282

__s__    ...       0.03705561

left   ...       0.00000000    -471.45337075
centre ...       0.01107118    -471.45338282
right  ...       0.07701898    -471.45326640
new    ...       0.02024200    -471.45339234

__s__    ...       0.00917082

left   ...       0.01107118    -471.45338282
centre ...       0.02024200    -471.45339234
right  ...       0.07701898    -471.45326640
new    ...       0.02616455    -471.45339825

__s__    ...       0.00592255

left   ...       0.02024200    -471.45339234
centre ...       0.02616455    -471.45339825
right  ...       0.07701898    -471.45326640
new    ...       0.03109242    -471.45340303

__s__    ...       0.00492786

 ALPHA AFTER:    3.1092415979607449E-002
  Cycle:    313 Energy:      -471.453403  Gnorm:      0.019233  CPU:    2.042
 Line minimisation2
 ALPHA BEFORE:    3.1092415979607449E-002
  ** Opt : line minimisation
left   ...       0.00000000    -471.45340303
centre ...       0.00777310    -471.45340855
right  ...       0.01554621    -471.45341382

left   ...       0.00000000    -471.45340303
centre ...       0.00777310    -471.45340855
right  ...       0.01554621    -471.45341382
new    ...       0.17073738    -471.45329012

__s__    ...       0.15519118

left   ...       0.00777310    -471.45340855
centre ...       0.01554621    -471.45341382
right  ...       0.17073738    -471.45329012
new    ...       0.04909906    -471.45343360

__s__    ...      -0.12163833

left   ...       0.01554621    -471.45341382
centre ...       0.04909906    -471.45343360
right  ...       0.17073738    -471.45329012
new    ...       0.05818117    -471.45343813

__s__    ...       0.00908212

 ALPHA AFTER:    5.8181173789932157E-002
  Cycle:    314 Energy:      -471.453438  Gnorm:      0.013684  CPU:    2.053
 Line minimisation2
 ALPHA BEFORE:    5.8181173789932157E-002
  ** Opt : line minimisation
left   ...       0.00000000    -471.45343813
centre ...       0.01454529    -471.45344321
right  ...       0.02909059    -471.45327312

left   ...       0.00000000    -471.45343813
centre ...       0.01454529    -471.45344321
right  ...       0.02909059    -471.45327312
new    ...       0.00769481    -471.45344084

__s__    ...      -0.02139577

 ALPHA AFTER:    1.4545293447483039E-002
  Cycle:    315 Energy:      -471.453443  Gnorm:      0.013183  CPU:    2.061
 Line minimisation2
 ALPHA BEFORE:    1.4545293447483039E-002
  ** Opt : line minimisation
left   ...       0.00000000    -471.45344321
centre ...       0.00363632    -471.45344462
right  ...       0.00727265    -471.45327102

left   ...       0.00000000    -471.45344321
centre ...       0.00363632    -471.45344462
right  ...       0.00727265    -471.45327102
new    ...       0.00184748    -471.45344393

__s__    ...      -0.00542516

 ALPHA AFTER:    3.6363233618707598E-003
  Cycle:    316 Energy:      -471.453445  Gnorm:      0.013036  CPU:    2.069
 Line minimisation2
 ALPHA BEFORE:    3.6363233618707598E-003
  ** Opt : line minimisation
left   ...       0.00000000    -471.45344462
centre ...       0.00090908    -471.45344498
right  ...       0.00181816    -471.45344533

left   ...       0.00000000    -471.45344462
centre ...       0.00090908    -471.45344498
right  ...       0.00181816    -471.45344533
new    ...       0.32898787    -471.45333366

__s__    ...       0.32716971

left   ...       0.00090908    -471.45344498
centre ...       0.00181816    -471.45344533
right  ...       0.32898787    -471.45333366
new    ...       0.08857389    -471.45329946

__s__    ...      -0.24041398

left   ...       0.00090908    -471.45344498
centre ...       0.00181816    -471.45344533
right  ...       0.08857389    -471.45329946
new    ...       0.00957236    -471.45327330

__s__    ...      -0.07900153

left   ...       0.00090908    -471.45344498
centre ...       0.00181816    -471.45344533
right  ...       0.00957236    -471.45327330
new    ...       0.00143797    -471.45344518

__s__    ...      -0.00813439

 ALPHA AFTER:    1.8181616809353799E-003
  Cycle:    317 Energy:      -471.453445  Gnorm:      0.012964  CPU:    2.082
 Line minimisation2
 ALPHA BEFORE:    1.8181616809353799E-003
  ** Opt : line minimisation
left   ...       0.00000000    -471.45344533
centre ...       0.00045454    -471.45344550
right  ...       0.00090908    -471.45327068

left   ...       0.00000000    -471.45344533
centre ...       0.00045454    -471.45344550
right  ...       0.00090908    -471.45327068
new    ...       0.00022773    -471.45344542

__s__    ...      -0.00068135

 ALPHA AFTER:    4.5454042023384498E-004
  Cycle:    318 Energy:      -471.453446  Gnorm:      0.012947  CPU:    2.090
 Line minimisation2
 ALPHA BEFORE:    4.5454042023384498E-004
  ** Opt : line minimisation
left   ...       0.00000000    -471.45344550
centre ...       0.00011364    -471.45344555
right  ...       0.00022727    -471.45327059

left   ...       0.00000000    -471.45344550
centre ...       0.00011364    -471.45344555
right  ...       0.00022727    -471.45327059
new    ...       0.00005685    -471.45344553

__s__    ...      -0.00017042

 ALPHA AFTER:    1.1363510505846124E-004
  Cycle:    319 Energy:      -471.453446  Gnorm:      0.012942  CPU:    2.098
 Line minimisation2
 ALPHA BEFORE:    1.1363510505846124E-004
  ** Opt : line minimisation
left   ...       0.00000000    -471.45344555
centre ...       0.00002841    -471.45344556
right  ...       0.00005682    -471.45344557

left   ...       0.00000000    -471.45344555
centre ...       0.00002841    -471.45344556
right  ...       0.00005682    -471.45344557
new    ...       0.30136446    -471.45333435

__s__    ...       0.30130764

left   ...       0.00002841    -471.45344556
centre ...       0.00005682    -471.45344557
right  ...       0.30136446    -471.45333435
new    ...       0.07721192    -471.45329701

__s__    ...      -0.22415254

left   ...       0.00002841    -471.45344556
centre ...       0.00005682    -471.45344557
right  ...       0.07721192    -471.45329701
new    ...       0.00650893    -471.45327305

__s__    ...      -0.07070299

left   ...       0.00002841    -471.45344556
centre ...       0.00005682    -471.45344557
right  ...       0.00650893    -471.45327305
new    ...       0.00008891    -471.45327058

__s__    ...      -0.00642002

 ALPHA AFTER:    5.6817552529230622E-005
  Cycle:    320 Energy:      -471.453446  Gnorm:      0.012940  CPU:    2.111
 Line minimisation2
 ALPHA BEFORE:    5.6817552529230622E-005
  ** Opt : line minimisation
left   ...       0.00000000    -471.45344557
centre ...       0.00001420    -471.45344558
right  ...       0.00002841    -471.45327058

left   ...       0.00000000    -471.45344557
centre ...       0.00001420    -471.45344558
right  ...       0.00002841    -471.45327058
new    ...       0.00000710    -471.45344557

__s__    ...      -0.00002131

 ALPHA AFTER:    1.4204388132307656E-005
  Cycle:    321 Energy:      -471.453446  Gnorm:      0.012939  CPU:    2.119
 Line minimisation2
 ALPHA BEFORE:    1.4204388132307656E-005
  ** Opt : line minimisation
left   ...       0.00000000    -471.45344558
centre ...       0.00000355    -471.45344558
right  ...       0.00000710    -471.45344558

left   ...       0.00000000    -471.45344558
centre ...       0.00000355    -471.45344558
right  ...       0.00000710    -471.45344558
new    ...       0.01600671    -471.45327663

__s__    ...       0.01599961

left   ...       0.00000355    -471.45344558
centre ...       0.00000710    -471.45344558
right  ...       0.01600671    -471.45327663
new    ...       0.00028850    -471.45327069

__s__    ...      -0.01571821

 ALPHA AFTER:    7.1021940661538278E-006
  Cycle:    322 Energy:      -471.453446  Gnorm:      0.012939  CPU:    2.129
 Line minimisation2
 ALPHA BEFORE:    7.1021940661538278E-006
  ** Opt : line minimisation
left   ...       0.00000000    -471.45344558
centre ...       0.00000178    -471.45344558
right  ...       0.00000355    -471.45344558

left   ...       0.00000000    -471.45344558
centre ...       0.00000178    -471.45344558
right  ...       0.00000355    -471.45344558
new    ...       0.00000710    -471.45327058

__s__    ...       0.00000355

 ALPHA AFTER:    3.5510970330769139E-006


  **** Conditions for a minimum have not been satisfied. However ****
  **** no lower point can be found - treat results with caution  ****
  **** unless gradient norm is small (less than 0.1)             ****


  Final energy =    -471.45344558 eV
  Final Gnorm  =       0.01293899

  Components of energy : 

--------------------------------------------------------------------------------
  Interatomic potentials     =          69.03275712 eV    
  Monopole - monopole (real) =        -252.65892568 eV    
  Monopole - monopole (recip)=        -287.82727702 eV    
  Monopole - monopole (total)=        -540.48620270 eV    
--------------------------------------------------------------------------------
  Total lattice energy       =        -471.45344558 eV    
--------------------------------------------------------------------------------
  Total lattice energy       =          -45488.0507 kJ/(mole unit cells)
--------------------------------------------------------------------------------

  Final fractional coordinates of atoms :

--------------------------------------------------------------------------------
   No.  Atomic        x           y          z          Radius
        Label       (Frac)      (Frac)     (Frac)       (Angs) 
--------------------------------------------------------------------------------
     1  O     c     0.500000    0.250000    0.600000    0.000000
     2  O     c     0.850012    0.317637    0.782282    0.000000
     3  O     c     0.029238    0.813879    0.850683    0.000000
     4  O     c     0.503391    0.298104    0.110168    0.000000
     5  O     c     0.673211    0.827463    0.204206    0.000000
     6  O     c     0.085856    0.564927    0.161836    0.000000
     7  O     c     0.828196    0.966288    0.629017    0.000000
     8  O     c     0.265643    0.377156    0.393543    0.000000
     9  O     c     0.252916    0.687031    0.565953    0.000000
    10  Sr    c     0.098810    0.942435    0.335469    0.000000
    11  Sr    c     0.284211    0.454875    0.912956    0.000000
    12  Sr    c     0.462673    0.977964    0.995398    0.000000
    13  Ti    c     0.271037    0.917568    0.661685    0.000000
    14  Ti    c     0.521227    0.522501    0.205649    0.000000
    15  Ti    c     0.068213    0.363700    0.587519    0.000000
--------------------------------------------------------------------------------

  Final Cartesian lattice vectors (Angstroms) :

        3.643592   -0.549425    0.749579
       -1.098850    6.282764    0.531290
        1.873947    0.664112   10.253945


  Final cell parameters and derivatives :

--------------------------------------------------------------------------------
       a            3.760252 Angstrom     dE/de1(xx)     0.014454 eV/strain
       b            6.400223 Angstrom     dE/de2(yy)     0.064106 eV/strain
       c           10.444908 Angstrom     dE/de3(zz)     0.030982 eV/strain
       alpha       83.505624 Degrees      dE/de4(yz)    -0.003395 eV/strain
       beta        68.884198 Degrees      dE/de5(xz)    -0.019239 eV/strain
       gamma      107.052477 Degrees      dE/de6(xy)    -0.003623 eV/strain
--------------------------------------------------------------------------------

  Primitive cell volume =           217.336013 Angs**3

  Density of cell =      4.206120 g/cm**3

  Non-primitive cell volume =           217.336013 Angs**3


  Final internal derivatives :

--------------------------------------------------------------------------------
   No.  Atomic          a             b             c           Radius
        Label          (eV)          (eV)          (eV)        (eV/Angs)
--------------------------------------------------------------------------------
      1 O     c       0.000000      0.000000      0.000000      0.000000
      2 O     c      -0.002327      0.016728      0.045912      0.000000
      3 O     c      -0.003579      0.030576     -0.055004      0.000000
      4 O     c      -0.064204     -0.055032      0.242412      0.000000
      5 O     c      -0.157592      0.026617     -0.020396      0.000000
      6 O     c      -0.143327      0.080155      0.134839      0.000000
      7 O     c      -0.124448      0.111214      0.032391      0.000000
      8 O     c      -0.061382     -0.030134     -0.227028      0.000000
      9 O     c       0.013642     -0.031384     -0.028431      0.000000
     10 Sr    c      -0.132277     -0.015562      0.042019      0.000000
     11 Sr    c      -0.054198     -0.067730     -0.169211      0.000000
     12 Sr    c      -0.027054      0.054916      0.151533      0.000000
     13 Ti    c       0.045269     -0.053101     -0.075781      0.000000
     14 Ti    c      -0.104928     -0.071479     -0.152887      0.000000
     15 Ti    c       0.028299     -0.077905      0.101086      0.000000
--------------------------------------------------------------------------------
  Maximum abs         0.157592      0.111214      0.242412      0.000000
--------------------------------------------------------------------------------


  Time to end of optimisation =       2.1369 seconds

 Exiting ------OPTIONS------

  Peak dynamic memory used =       0.55 MB 


  Timing analysis for GULP :

--------------------------------------------------------------------------------
  Task / Subroutine                                          Time (Seconds)
--------------------------------------------------------------------------------
  Calculation of reciprocal space energy and derivatives          0.1747
  Calculation of real space energy and derivatives                1.9354
  Global summation overhead                                       0.0010
--------------------------------------------------------------------------------
  Total CPU time                                                  2.1369
--------------------------------------------------------------------------------


  Job Finished at 16:25.27  3rd February   2020                               

