********************************************************************************
*                       GENERAL UTILITY LATTICE PROGRAM                        *
*                                 Julian Gale                                  *
*                       Curtin Institute for Computation                       *
*                           Department of Chemistry                            *
*                    Curtin University, Western Australia                      *
********************************************************************************
* Version = 5.1.1 * Last modified =  25th August 2019                          *
********************************************************************************
*  optimise     - perform optimisation run                                     *
*  conp         - constant pressure calculation                                *
*  nosymmetry   - turn off symmetry after initial structure generation         *
*  full         - generate full unit cell when symmetry is removed             *
*  conjugate    - use conjugate gradients minimiser                            *
********************************************************************************
* ASE calculation                                                              *
********************************************************************************


  Job Started  at 16:25.17  3rd February   2020                               

  Number of CPUs =     1


  Total number of configurations input =      1

********************************************************************************
*  Input for Configuration =   1                                               *
********************************************************************************

  Formula = O9Sr3Ti3                                                    

  Number of irreducible atoms/shells =      15


  Total number atoms/shells =      15

  Dimensionality = 3               :  Bulk   



  Cartesian lattice vectors (Angstroms) :

        6.000000    0.000000    0.000000
        0.000000    6.000000    0.000000
        0.000000    0.000000   12.000000

  Cell parameters (Angstroms/Degrees):

  a =       6.0000    alpha =  90.0000
  b =       6.0000    beta  =  90.0000
  c =      12.0000    gamma =  90.0000

  Initial cell volume =         432.000000 Angs**3

  Temperature of configuration =  0.000     K 

  Pressure of configuration =         0.000 GPa 

  Fractional coordinates of asymmetric unit :

--------------------------------------------------------------------------------
   No.  Atomic       x           y          z         Charge      Occupancy
        Label      (Frac)      (Frac)     (Frac)        (e)         (Frac)  
--------------------------------------------------------------------------------
      1 O     c    0.000000    0.333330    0.833330    -2.00000    1.000000    
      2 O     c    0.666670 *  0.666670 *  0.000000 *  -2.00000    1.000000    
      3 O     c    0.333330 *  0.666670 *  0.166670 *  -2.00000    1.000000    
      4 O     c    0.333330 *  0.000000 *  0.166670 *  -2.00000    1.000000    
      5 O     c    0.333330 *  0.333330 *  0.166670 *  -2.00000    1.000000    
      6 O     c    0.333330 *  0.333330 *  0.833330 *  -2.00000    1.000000    
      7 O     c    0.333330 *  0.000000 *  0.500000 *  -2.00000    1.000000    
      8 O     c    0.666670 *  0.000000 *  0.000000 *  -2.00000    1.000000    
      9 O     c    0.666670 *  0.000000 *  0.166670 *  -2.00000    1.000000    
     10 Sr    c    0.500000 *  0.833330 *  0.916670 *   2.00000    1.000000    
     11 Sr    c    0.166670 *  0.500000 *  0.916670 *   2.00000    1.000000    
     12 Sr    c    0.166670 *  0.833330 *  0.416670 *   2.00000    1.000000    
     13 Ti    c    0.833330 *  0.500000 *  0.416670 *   4.00000    1.000000    
     14 Ti    c    0.166670 *  0.166670 *  0.916670 *   4.00000    1.000000    
     15 Ti    c    0.833330 *  0.833330 *  0.583330 *   4.00000    1.000000    
--------------------------------------------------------------------------------



********************************************************************************
*  General input information                                                   *
********************************************************************************

  Species output for all configurations : 

--------------------------------------------------------------------------------
  Species    Type    Atomic    Atomic    Charge       Radii (Angs)     Library
                     Number     Mass       (e)     Cova   Ionic  VDW   Symbol
--------------------------------------------------------------------------------
    O        Core        8      16.00  -2.000000   0.730  0.000  1.360          
    Sr       Core       38      87.62   2.000000   1.120  0.000  1.670          
    Ti       Core       22      47.88   4.000000   1.470  0.000  2.190          
--------------------------------------------------------------------------------


  Lattice summation method               =    Ewald          (3-D)
                                         =    Parry          (2-D)
                                         =    Saunders et al (1-D)
  Accuracy factor for lattice sums       =   12.000


  Time limit = Infinity

  Maximum range for interatomic potentials =    100000.000000 Angstroms

  General interatomic potentials :

--------------------------------------------------------------------------------
Atom  Types   Potential      Parameter       Value         Units   Cutoffs(Ang)
  1     2                                                            Min /  Max 
--------------------------------------------------------------------------------
O    c Sr   c Buckingham    Buckingham A     1952.3900    eV        0.000 10.000
                            Buckingham rho  0.33685000    Ang       
                            Buckingham C     19.220000    eV*Ang^6  
--------------------------------------------------------------------------------
O    c Ti   c Buckingham    Buckingham A     4590.7279    eV        0.000 10.000
                            Buckingham rho  0.26100000    Ang       
                            Buckingham C     0.0000000    eV*Ang^6  
--------------------------------------------------------------------------------
O    c O    c Buckingham    Buckingham A     1388.7700    eV        0.000 10.000
                            Buckingham rho  0.36262000    Ang       
                            Buckingham C     175.00000    eV*Ang^6  
--------------------------------------------------------------------------------
 Calling ------OPTIONS------

********************************************************************************
*  Output for configuration   1                                                *
********************************************************************************


  Components of energy : 

--------------------------------------------------------------------------------
  Interatomic potentials     =          86.73882635 eV    
  Monopole - monopole (real) =         -15.03500613 eV    
  Monopole - monopole (recip)=        -125.05826005 eV    
  Monopole - monopole (total)=        -140.09326618 eV    
--------------------------------------------------------------------------------
  Total lattice energy       =         -53.35443983 eV    
--------------------------------------------------------------------------------
  Total lattice energy       =           -5147.8878 kJ/(mole unit cells)
--------------------------------------------------------------------------------


  Number of variables =       48

  Maximum number of calculations  =          1000
  Maximum Hessian update interval =            10
  Maximum step size               =   1.000000000
  Maximum parameter tolerance     =   0.000010000
  Maximum function  tolerance     =   0.000010000
  Maximum gradient  tolerance     =   0.001000000
  Maximum gradient  component     =   0.010000000

  Cell parameters to be optimised using strains

  Conjugate gradient optimiser to be used

  Lower half triangular hessian to be used

  Start of bulk optimisation :

  Cycle:      0 Energy:       -53.354440  Gnorm:     31.391907  CPU:    0.012
 Perform trimming
 Line minimisation2
 ALPHA BEFORE:    1.0000000000000000     
  ** Opt : line minimisation
left   ...       0.00000000     -53.35443983
centre ...       0.25000000    -118.66801073
right  ...       0.50000000    -168.59695500

left   ...       0.00000000     -53.35443983
centre ...       0.25000000    -118.66801073
right  ...       0.50000000    -168.59695500
new    ...       1.18634475    -253.88567143

__s__    ...       0.68634475

left   ...       0.25000000    -118.66801073
centre ...       0.50000000    -168.59695500
right  ...       1.18634475    -253.88567143
new    ...       1.61423926    -275.96437803

__s__    ...       0.42789451

left   ...       0.50000000    -168.59695500
centre ...       1.18634475    -253.88567143
right  ...       1.61423926    -275.96437803
new    ...       1.79588653    -278.25586204

__s__    ...       0.18164727

left   ...       1.18634475    -253.88567143
centre ...       1.61423926    -275.96437803
right  ...       1.79588653    -278.25586204
new    ...       1.80368654    -278.26112510

__s__    ...       0.00780001

 ALPHA AFTER:    1.8036865373670468     
  Cycle:      1 Energy:      -278.261125  Gnorm:      9.633754  CPU:    0.028
 Perform trimming
 Line minimisation2
 ALPHA BEFORE:    1.8036865373670468     
  ** Opt : line minimisation
left   ...       0.00000000    -278.26112510
centre ...       0.45092163    -313.86530737
right  ...       0.90184327    -207.04532650

left   ...       0.00000000    -278.26112510
centre ...       0.45092163    -313.86530737
right  ...       0.90184327    -207.04532650
new    ...       0.33818534    -311.31476031

__s__    ...      -0.56365793

left   ...       0.33818534    -311.31476031
centre ...       0.45092163    -313.86530737
right  ...       0.90184327    -207.04532650
new    ...       0.41912264    -313.89304184

__s__    ...       0.08093730

left   ...       0.33818534    -311.31476031
centre ...       0.41912264    -313.89304184
right  ...       0.45092163    -313.86530737
new    ...       0.43351994    -313.96528295

__s__    ...       0.01439730

 ALPHA AFTER:   0.43351993591050947     
  Cycle:      2 Energy:      -313.965283  Gnorm:     10.323993  CPU:    0.034
 Perform trimming
 Line minimisation2
 ALPHA BEFORE:   0.43351993591050947     
  ** Opt : line minimisation
left   ...       0.00000000    -313.96528295
centre ...       0.10837998    -328.49618483
right  ...       0.21675997    -336.95913787

left   ...       0.00000000    -313.96528295
centre ...       0.10837998    -328.49618483
right  ...       0.21675997    -336.95913787
new    ...       0.31372727    -342.32922179

__s__    ...       0.09696730

left   ...       0.10837998    -328.49618483
centre ...       0.21675997    -336.95913787
right  ...       0.31372727    -342.32922179
new    ...       0.51567117    -348.64034353

__s__    ...       0.20194390

left   ...       0.21675997    -336.95913787
centre ...       0.31372727    -342.32922179
right  ...       0.51567117    -348.64034353
new    ...       0.60827795    -347.11950994

__s__    ...       0.09260678

left   ...       0.31372727    -342.32922179
centre ...       0.51567117    -348.64034353
right  ...       0.60827795    -347.11950994
new    ...       0.51124229    -348.61199333

__s__    ...      -0.09703565

left   ...       0.51124229    -348.61199333
centre ...       0.51567117    -348.64034353
right  ...       0.60827795    -347.11950994
new    ...       0.52706422    -348.67815793

__s__    ...       0.01582193

 ALPHA AFTER:   0.52706422453083079     
  Cycle:      3 Energy:      -348.678158  Gnorm:      9.744716  CPU:    0.041
 Line minimisation2
 ALPHA BEFORE:   0.52706422453083079     
  ** Opt : line minimisation
left   ...       0.00000000    -348.67815793
centre ...       0.13176606    -366.24553655
right  ...       0.26353211    -289.68166079

left   ...       0.00000000    -348.67815793
centre ...       0.13176606    -366.24553655
right  ...       0.26353211    -289.68166079
new    ...       0.09047405    -364.53473298

__s__    ...      -0.17305806

left   ...       0.09047405    -364.53473298
centre ...       0.13176606    -366.24553655
right  ...       0.26353211    -289.68166079
new    ...       0.11687927    -366.27877170

__s__    ...       0.02640521

left   ...       0.09047405    -364.53473298
centre ...       0.11687927    -366.27877170
right  ...       0.13176606    -366.24553655
new    ...       0.12364762    -366.36882043

__s__    ...       0.00676836

 ALPHA AFTER:   0.12364762186028617     
  Cycle:      4 Energy:      -366.368820  Gnorm:      9.373926  CPU:    0.047
 Line minimisation2
 ALPHA BEFORE:   0.12364762186028617     
  ** Opt : line minimisation
left   ...       0.00000000    -366.36882043
centre ...       0.03091191    -372.06395627
right  ...       0.06182381    -376.60536376

left   ...       0.00000000    -366.36882043
centre ...       0.03091191    -372.06395627
right  ...       0.06182381    -376.60536376
new    ...       0.16804603    -383.45823040

__s__    ...       0.10622222

left   ...       0.03091191    -372.06395627
centre ...       0.06182381    -376.60536376
right  ...       0.16804603    -383.45823040
new    ...       0.16861892    -383.45951421

__s__    ...       0.00057288

 ALPHA AFTER:   0.16861891777557195     
  Cycle:      5 Energy:      -383.459514  Gnorm:     10.122750  CPU:    0.052
 Line minimisation2
 ALPHA BEFORE:   0.16861891777557195     
  ** Opt : line minimisation
left   ...       0.00000000    -383.45951421
centre ...       0.04215473    -390.59663227
right  ...       0.08430946    -393.66758737

left   ...       0.00000000    -383.45951421
centre ...       0.04215473    -390.59663227
right  ...       0.08430946    -393.66758737
new    ...       0.09506930    -394.00163825

__s__    ...       0.01075984

 ALPHA AFTER:    9.5069303273707773E-002
  Cycle:      6 Energy:      -394.001638  Gnorm:      7.875622  CPU:    0.056
 Line minimisation2
 ALPHA BEFORE:    9.5069303273707773E-002
  ** Opt : line minimisation
left   ...       0.00000000    -394.00163825
centre ...       0.02376733    -397.46787865
right  ...       0.04753465    -400.54092754

left   ...       0.00000000    -394.00163825
centre ...       0.02376733    -397.46787865
right  ...       0.04753465    -400.54092754
new    ...       0.22140818    -409.00340274

__s__    ...       0.17387353

left   ...       0.02376733    -397.46787865
centre ...       0.04753465    -400.54092754
right  ...       0.22140818    -409.00340274
new    ...       0.19412419    -409.59728572

__s__    ...      -0.02728400

left   ...       0.04753465    -400.54092754
centre ...       0.19412419    -409.59728572
right  ...       0.22140818    -409.00340274
new    ...       0.18511635    -409.60933571

__s__    ...      -0.00900783

 ALPHA AFTER:   0.18511635336309865     
  Cycle:      7 Energy:      -409.609336  Gnorm:      5.169000  CPU:    0.061
 Line minimisation2
 ALPHA BEFORE:   0.18511635336309865     
  ** Opt : line minimisation
left   ...       0.00000000    -409.60933571
centre ...       0.04627909    -412.03805314
right  ...       0.09255818    -413.59352403

left   ...       0.00000000    -409.60933571
centre ...       0.04627909    -412.03805314
right  ...       0.09255818    -413.59352403
new    ...       0.15185328    -414.57555438

__s__    ...       0.05929511

left   ...       0.04627909    -412.03805314
centre ...       0.09255818    -413.59352403
right  ...       0.15185328    -414.57555438
new    ...       0.17348442    -414.70248329

__s__    ...       0.02163114

 ALPHA AFTER:   0.17348442471467709     
  Cycle:      8 Energy:      -414.702483  Gnorm:      5.432087  CPU:    0.066
 Line minimisation2
 ALPHA BEFORE:   0.17348442471467709     
  ** Opt : line minimisation
left   ...       0.00000000    -414.70248329
centre ...       0.04337111    -417.53902813
right  ...       0.08674221    -419.85590721

left   ...       0.00000000    -414.70248329
centre ...       0.04337111    -417.53902813
right  ...       0.08674221    -419.85590721
new    ...       0.25842251    -424.31186834

__s__    ...       0.17168030

left   ...       0.04337111    -417.53902813
centre ...       0.08674221    -419.85590721
right  ...       0.25842251    -424.31186834
new    ...       0.27419682    -424.35968547

__s__    ...       0.01577431

 ALPHA AFTER:   0.27419681763664078     
  Cycle:      9 Energy:      -424.359685  Gnorm:      5.549823  CPU:    0.071
 Line minimisation2
 ALPHA BEFORE:   0.27419681763664078     
  ** Opt : line minimisation
left   ...       0.00000000    -424.35968547
centre ...       0.06854920    -428.44210897
right  ...       0.13709841    -430.48089718

left   ...       0.00000000    -424.35968547
centre ...       0.06854920    -428.44210897
right  ...       0.13709841    -430.48089718
new    ...       0.17121043    -430.46865990

__s__    ...       0.03411202

 ALPHA AFTER:   0.13709840881832039     
  Cycle:     10 Energy:      -430.480897  Gnorm:      3.629462  CPU:    0.074
 Line minimisation2
 ALPHA BEFORE:   0.13709840881832039     
  ** Opt : line minimisation
left   ...       0.00000000    -430.48089718
centre ...       0.03427460    -431.55002174
right  ...       0.06854920    -432.47594250

left   ...       0.00000000    -430.48089718
centre ...       0.03427460    -431.55002174
right  ...       0.06854920    -432.47594250
new    ...       0.27302309    -435.24120660

__s__    ...       0.20447388

left   ...       0.03427460    -431.55002174
centre ...       0.06854920    -432.47594250
right  ...       0.27302309    -435.24120660
new    ...       0.29045083    -435.26827231

__s__    ...       0.01742775

 ALPHA AFTER:   0.29045083384423631     
  Cycle:     11 Energy:      -435.268272  Gnorm:      3.544090  CPU:    0.079
 Line minimisation2
 ALPHA BEFORE:   0.29045083384423631     
  ** Opt : line minimisation
left   ...       0.00000000    -435.26827231
centre ...       0.07261271    -437.21375519
right  ...       0.14522542    -438.70995590

left   ...       0.00000000    -435.26827231
centre ...       0.07261271    -437.21375519
right  ...       0.14522542    -438.70995590
new    ...       0.35073410    -440.24219168

__s__    ...       0.20550869

left   ...       0.07261271    -437.21375519
centre ...       0.14522542    -438.70995590
right  ...       0.35073410    -440.24219168
new    ...       0.32682835    -440.28607881

__s__    ...      -0.02390575

 ALPHA AFTER:   0.32682835166717744     
  Cycle:     12 Energy:      -440.286079  Gnorm:      3.584659  CPU:    0.084
 Line minimisation2
 ALPHA BEFORE:   0.32682835166717744     
  ** Opt : line minimisation
left   ...       0.00000000    -440.28607881
centre ...       0.08170709    -442.38283544
right  ...       0.16341418    -443.90327473

left   ...       0.00000000    -440.28607881
centre ...       0.08170709    -442.38283544
right  ...       0.16341418    -443.90327473
new    ...       0.33812012    -445.42788397

__s__    ...       0.17470594

left   ...       0.08170709    -442.38283544
centre ...       0.16341418    -443.90327473
right  ...       0.33812012    -445.42788397
new    ...       0.36398878    -445.46665330

__s__    ...       0.02586867

 ALPHA AFTER:   0.36398878206075391     
  Cycle:     13 Energy:      -445.466653  Gnorm:      4.077131  CPU:    0.088
 Line minimisation2
 ALPHA BEFORE:   0.36398878206075391     
  ** Opt : line minimisation
left   ...       0.00000000    -445.46665330
centre ...       0.09099720    -448.00099191
right  ...       0.18199439    -448.27166634

left   ...       0.00000000    -445.46665330
centre ...       0.09099720    -448.00099191
right  ...       0.18199439    -448.27166634
new    ...       0.14737665    -448.47817101

__s__    ...      -0.03461774

 ALPHA AFTER:   0.14737665355903223     
  Cycle:     14 Energy:      -448.478171  Gnorm:      3.148754  CPU:    0.091
 Line minimisation2
 ALPHA BEFORE:   0.14737665355903223     
  ** Opt : line minimisation
left   ...       0.00000000    -448.47817101
centre ...       0.03684416    -449.27362719
right  ...       0.07368833    -449.97644110

left   ...       0.00000000    -448.47817101
centre ...       0.03684416    -449.27362719
right  ...       0.07368833    -449.97644110
new    ...       0.33477786    -452.49960298

__s__    ...       0.26108953

left   ...       0.03684416    -449.27362719
centre ...       0.07368833    -449.97644110
right  ...       0.33477786    -452.49960298
new    ...       0.35719871    -452.51821848

__s__    ...       0.02242085

 ALPHA AFTER:   0.35719870504015327     
  Cycle:     15 Energy:      -452.518218  Gnorm:      1.952356  CPU:    0.094
 Line minimisation2
 ALPHA BEFORE:   0.35719870504015327     
  ** Opt : line minimisation
left   ...       0.00000000    -452.51821848
centre ...       0.08929968    -453.25381201
right  ...       0.17859935    -453.86294304

left   ...       0.00000000    -452.51821848
centre ...       0.08929968    -453.25381201
right  ...       0.17859935    -453.86294304
new    ...       0.56407861    -454.80262613

__s__    ...       0.38547926

left   ...       0.08929968    -453.25381201
centre ...       0.17859935    -453.86294304
right  ...       0.56407861    -454.80262613
new    ...       0.50335323    -454.86416989

__s__    ...      -0.06072538

 ALPHA AFTER:   0.50335323499104256     
  Cycle:     16 Energy:      -454.864170  Gnorm:      2.341955  CPU:    0.098
 Perform trimming
 Line minimisation2
 ALPHA BEFORE:   0.50335323499104256     
  ** Opt : line minimisation
left   ...       0.00000000    -454.86416989
centre ...       0.12583831    -456.01331558
right  ...       0.25167662    -456.63672262

left   ...       0.00000000    -454.86416989
centre ...       0.12583831    -456.01331558
right  ...       0.25167662    -456.63672262
new    ...       0.33797321    -456.61746931

__s__    ...       0.08629659

 ALPHA AFTER:   0.25167661749552128     
  Cycle:     17 Energy:      -456.636723  Gnorm:      1.673606  CPU:    0.101
 Line minimisation2
 ALPHA BEFORE:   0.25167661749552128     
  ** Opt : line minimisation
left   ...       0.00000000    -456.63672262
centre ...       0.06291915    -456.98423771
right  ...       0.12583831    -457.22594245

left   ...       0.00000000    -456.63672262
centre ...       0.06291915    -456.98423771
right  ...       0.12583831    -457.22594245
new    ...       0.23810622    -457.42724139

__s__    ...       0.11226791

left   ...       0.06291915    -456.98423771
centre ...       0.12583831    -457.22594245
right  ...       0.23810622    -457.42724139
new    ...       0.25864202    -457.43535044

__s__    ...       0.02053580

 ALPHA AFTER:   0.25864201681216065     
  Cycle:     18 Energy:      -457.435350  Gnorm:      1.016826  CPU:    0.104
 Line minimisation2
 ALPHA BEFORE:   0.25864201681216065     
  ** Opt : line minimisation
left   ...       0.00000000    -457.43535044
centre ...       0.06466050    -457.58554709
right  ...       0.12932101    -457.71714814

left   ...       0.00000000    -457.43535044
centre ...       0.06466050    -457.58554709
right  ...       0.12932101    -457.71714814
new    ...       0.55459304    -458.09469567

__s__    ...       0.42527203

left   ...       0.06466050    -457.58554709
centre ...       0.12932101    -457.71714814
right  ...       0.55459304    -458.09469567
new    ...       0.53148131    -458.09684200

__s__    ...      -0.02311173

 ALPHA AFTER:   0.53148131012129118     
  Cycle:     19 Energy:      -458.096842  Gnorm:      0.931426  CPU:    0.108
 Line minimisation2
 ALPHA BEFORE:   0.53148131012129118     
  ** Opt : line minimisation
left   ...       0.00000000    -458.09684200
centre ...       0.13287033    -458.28112790
right  ...       0.26574066    -458.29859864

left   ...       0.00000000    -458.09684200
centre ...       0.13287033    -458.28112790
right  ...       0.26574066    -458.29859864
new    ...       0.21322115    -458.31178500

__s__    ...      -0.05251951

 ALPHA AFTER:   0.21322115003696843     
  Cycle:     20 Energy:      -458.311785  Gnorm:      0.608768  CPU:    0.111
 Line minimisation2
 ALPHA BEFORE:   0.21322115003696843     
  ** Opt : line minimisation
left   ...       0.00000000    -458.31178500
centre ...       0.05330529    -458.35588932
right  ...       0.10661058    -458.39575751

left   ...       0.00000000    -458.31178500
centre ...       0.05330529    -458.35588932
right  ...       0.10661058    -458.39575751
new    ...       0.58164012    -458.57707862

__s__    ...       0.47502954

left   ...       0.05330529    -458.35588932
centre ...       0.10661058    -458.39575751
right  ...       0.58164012    -458.57707862
new    ...       0.61946480    -458.57755392

__s__    ...       0.03782469

 ALPHA AFTER:   0.61946480361405132     
  Cycle:     21 Energy:      -458.577554  Gnorm:      0.832445  CPU:    0.114
 Perform trimming
 Line minimisation2
 ALPHA BEFORE:   0.61946480361405132     
  ** Opt : line minimisation
left   ...       0.00000000    -458.57755392
centre ...       0.15486620    -458.73474143
right  ...       0.30973240    -458.87875240

left   ...       0.00000000    -458.57755392
centre ...       0.15486620    -458.73474143
right  ...       0.30973240    -458.87875240
new    ...       1.30973240    -459.48812868

__s__    ...       1.00000000

left   ...       0.15486620    -458.73474143
centre ...       0.30973240    -458.87875240
right  ...       1.30973240    -459.48812868
new    ...       1.90752221    -459.59387656

__s__    ...       0.59778981

 ALPHA AFTER:    1.9075222114129611     
  Cycle:     22 Energy:      -459.593877  Gnorm:      1.572372  CPU:    0.118
 Perform trimming
 Line minimisation2
 ALPHA BEFORE:    1.9075222114129611     
  ** Opt : line minimisation
left   ...       0.00000000    -459.59387656
centre ...       0.47688055    -460.58330379
right  ...       0.95376111    -461.13538766

left   ...       0.00000000    -459.59387656
centre ...       0.47688055    -460.58330379
right  ...       0.95376111    -461.13538766
new    ...       1.31731478    -461.09718133

__s__    ...       0.36355368

 ALPHA AFTER:   0.95376110570648054     
  Cycle:     23 Energy:      -461.135388  Gnorm:      1.307255  CPU:    0.123
 Line minimisation2
 ALPHA BEFORE:   0.95376110570648054     
  ** Opt : line minimisation
left   ...       0.00000000    -461.13538766
centre ...       0.23844028    -461.98513041
right  ...       0.47688055    -462.34128718

left   ...       0.00000000    -461.13538766
centre ...       0.23844028    -461.98513041
right  ...       0.47688055    -462.34128718
new    ...       0.52971174    -462.34646952

__s__    ...       0.05283119

 ALPHA AFTER:   0.52971174045798375     
  Cycle:     24 Energy:      -462.346470  Gnorm:      1.345907  CPU:    0.128
 Line minimisation2
 ALPHA BEFORE:   0.52971174045798375     
  ** Opt : line minimisation
left   ...       0.00000000    -462.34646952
centre ...       0.13242794    -462.77354002
right  ...       0.26485587    -462.97737883

left   ...       0.00000000    -462.34646952
centre ...       0.13242794    -462.77354002
right  ...       0.26485587    -462.97737883
new    ...       0.31956538    -462.99386443

__s__    ...       0.05470951

 ALPHA AFTER:   0.31956538488265290     
  Cycle:     25 Energy:      -462.993864  Gnorm:      1.180695  CPU:    0.133
 Line minimisation2
 ALPHA BEFORE:   0.31956538488265290     
  ** Opt : line minimisation
left   ...       0.00000000    -462.99386443
centre ...       0.07989135    -463.21561363
right  ...       0.15978269    -463.37985282

left   ...       0.00000000    -462.99386443
centre ...       0.07989135    -463.21561363
right  ...       0.15978269    -463.37985282
new    ...       0.34799363    -463.54072469

__s__    ...       0.18821094

left   ...       0.07989135    -463.21561363
centre ...       0.15978269    -463.37985282
right  ...       0.34799363    -463.54072469
new    ...       0.34928818    -463.54072980

__s__    ...       0.00129455

 ALPHA AFTER:   0.34928818049016952     
  Cycle:     26 Energy:      -463.540730  Gnorm:      0.945111  CPU:    0.139
 Line minimisation2
 ALPHA BEFORE:   0.34928818049016952     
  ** Opt : line minimisation
left   ...       0.00000000    -463.54072980
centre ...       0.08732205    -463.69893732
right  ...       0.17464409    -463.82512786

left   ...       0.00000000    -463.54072980
centre ...       0.08732205    -463.69893732
right  ...       0.17464409    -463.82512786
new    ...       0.47515096    -464.02183421

__s__    ...       0.30050687

left   ...       0.08732205    -463.69893732
centre ...       0.17464409    -463.82512786
right  ...       0.47515096    -464.02183421
new    ...       0.48546339    -464.02224836

__s__    ...       0.01031244

 ALPHA AFTER:   0.48546339067231281     
  Cycle:     27 Energy:      -464.022248  Gnorm:      0.875254  CPU:    0.144
 Line minimisation2
 ALPHA BEFORE:   0.48546339067231281     
  ** Opt : line minimisation
left   ...       0.00000000    -464.02224836
centre ...       0.12136585    -464.20276389
right  ...       0.24273170    -464.31736175

left   ...       0.00000000    -464.02224836
centre ...       0.12136585    -464.20276389
right  ...       0.24273170    -464.31736175
new    ...       0.39304322    -464.36969467

__s__    ...       0.15031152

 ALPHA AFTER:   0.39304321986880425     
  Cycle:     28 Energy:      -464.369695  Gnorm:      0.629102  CPU:    0.149
 Line minimisation2
 ALPHA BEFORE:   0.39304321986880425     
  ** Opt : line minimisation
left   ...       0.00000000    -464.36969467
centre ...       0.09826080    -464.45498134
right  ...       0.19652161    -464.52755384

left   ...       0.00000000    -464.36969467
centre ...       0.09826080    -464.45498134
right  ...       0.19652161    -464.52755384
new    ...       0.70826372    -464.70941346

__s__    ...       0.51174211

left   ...       0.09826080    -464.45498134
centre ...       0.19652161    -464.52755384
right  ...       0.70826372    -464.70941346
new    ...       0.73524866    -464.70953476

__s__    ...       0.02698494

 ALPHA AFTER:   0.73524866104989728     
  Cycle:     29 Energy:      -464.709535  Gnorm:      0.870446  CPU:    0.155
 Line minimisation2
 ALPHA BEFORE:   0.73524866104989728     
  ** Opt : line minimisation
left   ...       0.00000000    -464.70953476
centre ...       0.18381217    -464.87157455
right  ...       0.36762433    -464.76020662

left   ...       0.00000000    -464.70953476
centre ...       0.18381217    -464.87157455
right  ...       0.36762433    -464.76020662
new    ...       0.20084553    -464.87187903

__s__    ...      -0.16677881

left   ...       0.18381217    -464.87157455
centre ...       0.20084553    -464.87187903
right  ...       0.36762433    -464.76020662
new    ...       0.19471858    -464.87203593

__s__    ...      -0.00612694

 ALPHA AFTER:   0.19471858128166936     
  Cycle:     30 Energy:      -464.872036  Gnorm:      0.433242  CPU:    0.161
 Line minimisation2
 ALPHA BEFORE:   0.19471858128166936     
  ** Opt : line minimisation
left   ...       0.00000000    -464.87203593
centre ...       0.04867965    -464.89199699
right  ...       0.09735929    -464.91017121

left   ...       0.00000000    -464.87203593
centre ...       0.04867965    -464.89199699
right  ...       0.09735929    -464.91017121
new    ...       0.56814607    -464.99255015

__s__    ...       0.47078678

left   ...       0.04867965    -464.89199699
centre ...       0.09735929    -464.91017121
right  ...       0.56814607    -464.99255015
new    ...       0.56187180    -464.99258443

__s__    ...      -0.00627427

 ALPHA AFTER:   0.56187179776213103     
  Cycle:     31 Energy:      -464.992584  Gnorm:      0.484983  CPU:    0.167
 Perform trimming
 Line minimisation2
 ALPHA BEFORE:   0.56187179776213103     
  ** Opt : line minimisation
left   ...       0.00000000    -464.99258443
centre ...       0.14046795    -465.05952601
right  ...       0.28093590    -465.11825710

left   ...       0.00000000    -464.99258443
centre ...       0.14046795    -465.05952601
right  ...       0.28093590    -465.11825710
new    ...       1.21549359    -465.29208763

__s__    ...       0.93455769

left   ...       0.14046795    -465.05952601
centre ...       0.28093590    -465.11825710
right  ...       1.21549359    -465.29208763
new    ...       1.17895962    -465.29246607

__s__    ...      -0.03653397

 ALPHA AFTER:    1.1789596229251622     
  Cycle:     32 Energy:      -465.292466  Gnorm:      0.643537  CPU:    0.173
 Perform trimming
 Line minimisation2
 ALPHA BEFORE:    1.1789596229251622     
  ** Opt : line minimisation
left   ...       0.00000000    -465.29246607
centre ...       0.29473991    -465.45575200
right  ...       0.58947981    -465.52170390

left   ...       0.00000000    -465.29246607
centre ...       0.29473991    -465.45575200
right  ...       0.58947981    -465.52170390
new    ...       0.64182068    -465.52369382

__s__    ...       0.05234086

 ALPHA AFTER:   0.64182067548143495     
  Cycle:     33 Energy:      -465.523694  Gnorm:      0.715902  CPU:    0.178
 Line minimisation2
 ALPHA BEFORE:   0.64182067548143495     
  ** Opt : line minimisation
left   ...       0.00000000    -465.52369382
centre ...       0.16045517    -465.68512197
right  ...       0.32091034    -465.78933243

left   ...       0.00000000    -465.52369382
centre ...       0.16045517    -465.68512197
right  ...       0.32091034    -465.78933243
new    ...       0.53291935    -465.83792178

__s__    ...       0.21200901

 ALPHA AFTER:   0.53291934702045074     
  Cycle:     34 Energy:      -465.837922  Gnorm:      0.811493  CPU:    0.184
 Perform trimming
 Line minimisation2
 ALPHA BEFORE:   0.53291934702045074     
  ** Opt : line minimisation
left   ...       0.00000000    -465.83792178
centre ...       0.13322984    -465.99108098
right  ...       0.26645967    -466.08366171

left   ...       0.00000000    -465.83792178
centre ...       0.13322984    -465.99108098
right  ...       0.26645967    -466.08366171
new    ...       0.40345695    -466.11344369

__s__    ...       0.13699727

 ALPHA AFTER:   0.40345694670686572     
  Cycle:     35 Energy:      -466.113444  Gnorm:      0.606835  CPU:    0.191
 Line minimisation2
 ALPHA BEFORE:   0.40345694670686572     
  ** Opt : line minimisation
left   ...       0.00000000    -466.11344369
centre ...       0.10086424    -466.18893622
right  ...       0.20172847    -466.24420672

left   ...       0.00000000    -466.11344369
centre ...       0.10086424    -466.18893622
right  ...       0.20172847    -466.24420672
new    ...       0.42697700    -466.29455562

__s__    ...       0.22524852

left   ...       0.10086424    -466.18893622
centre ...       0.20172847    -466.24420672
right  ...       0.42697700    -466.29455562
new    ...       0.42669078    -466.29455484

__s__    ...      -0.00028622

 ALPHA AFTER:   0.42697699606543221     
  Cycle:     36 Energy:      -466.294556  Gnorm:      0.585225  CPU:    0.199
 Line minimisation2
 ALPHA BEFORE:   0.42697699606543221     
  ** Opt : line minimisation
left   ...       0.00000000    -466.29455562
centre ...       0.10674425    -466.36997616
right  ...       0.21348850    -466.42632192

left   ...       0.00000000    -466.29455562
centre ...       0.10674425    -466.36997616
right  ...       0.21348850    -466.42632192
new    ...       0.47543240    -466.48159569

__s__    ...       0.26194391

left   ...       0.10674425    -466.36997616
centre ...       0.21348850    -466.42632192
right  ...       0.47543240    -466.48159569
new    ...       0.46723112    -466.48167838

__s__    ...      -0.00820128

 ALPHA AFTER:   0.46723112434600644     
  Cycle:     37 Energy:      -466.481678  Gnorm:      0.455597  CPU:    0.207
 Line minimisation2
 ALPHA BEFORE:   0.46723112434600644     
  ** Opt : line minimisation
left   ...       0.00000000    -466.48167838
centre ...       0.11680778    -466.52971215
right  ...       0.23361556    -466.56166651

left   ...       0.00000000    -466.48167838
centre ...       0.11680778    -466.52971215
right  ...       0.23361556    -466.56166651
new    ...       0.40734217    -466.58040001

__s__    ...       0.17372661

 ALPHA AFTER:   0.40734217287031432     
  Cycle:     38 Energy:      -466.580400  Gnorm:      0.412222  CPU:    0.214
 Line minimisation2
 ALPHA BEFORE:   0.40734217287031432     
  ** Opt : line minimisation
left   ...       0.00000000    -466.58040001
centre ...       0.10183554    -466.61638844
right  ...       0.20367109    -466.64297370

left   ...       0.00000000    -466.58040001
centre ...       0.10183554    -466.61638844
right  ...       0.20367109    -466.64297370
new    ...       0.44066938    -466.66820476

__s__    ...       0.23699829

left   ...       0.10183554    -466.61638844
centre ...       0.20367109    -466.64297370
right  ...       0.44066938    -466.66820476
new    ...       0.43883458    -466.66820786

__s__    ...      -0.00183479

 ALPHA AFTER:   0.43883458461779523     
  Cycle:     39 Energy:      -466.668208  Gnorm:      0.409668  CPU:    0.222
 Line minimisation2
 ALPHA BEFORE:   0.43883458461779523     
  ** Opt : line minimisation
left   ...       0.00000000    -466.66820786
centre ...       0.10970865    -466.70029692
right  ...       0.21941729    -466.71167077

left   ...       0.00000000    -466.66820786
centre ...       0.10970865    -466.70029692
right  ...       0.21941729    -466.71167077
new    ...       0.22479940    -466.71167912

__s__    ...       0.00538211

 ALPHA AFTER:   0.22479940161679898     
  Cycle:     40 Energy:      -466.711679  Gnorm:      0.280863  CPU:    0.229
 Line minimisation2
 ALPHA BEFORE:   0.22479940161679898     
  ** Opt : line minimisation
left   ...       0.00000000    -466.71167912
centre ...       0.05619985    -466.72138644
right  ...       0.11239970    -466.73020164

left   ...       0.00000000    -466.71167912
centre ...       0.05619985    -466.72138644
right  ...       0.11239970    -466.73020164
new    ...       0.63961144    -466.76957824

__s__    ...       0.52721174

left   ...       0.05619985    -466.72138644
centre ...       0.11239970    -466.73020164
right  ...       0.63961144    -466.76957824
new    ...       0.64116452    -466.76957869

__s__    ...       0.00155308

 ALPHA AFTER:   0.64116452265311086     
  Cycle:     41 Energy:      -466.769579  Gnorm:      0.316378  CPU:    0.238
 Perform trimming
 Line minimisation2
 ALPHA BEFORE:   0.64116452265311086     
  ** Opt : line minimisation
left   ...       0.00000000    -466.76957869
centre ...       0.16029113    -466.80207697
right  ...       0.32058226    -466.82778531

left   ...       0.00000000    -466.76957869
centre ...       0.16029113    -466.80207697
right  ...       0.32058226    -466.82778531
new    ...       0.84733752    -466.86599789

__s__    ...       0.52675526

left   ...       0.16029113    -466.80207697
centre ...       0.32058226    -466.82778531
right  ...       0.84733752    -466.86599789
new    ...       0.86765484    -466.86605880

__s__    ...       0.02031732

 ALPHA AFTER:   0.86765484352462496     
  Cycle:     42 Energy:      -466.866059  Gnorm:      0.386136  CPU:    0.246
 Perform trimming
 Line minimisation2
 ALPHA BEFORE:   0.86765484352462496     
  ** Opt : line minimisation
left   ...       0.00000000    -466.86605880
centre ...       0.21691371    -466.91756740
right  ...       0.43382742    -466.93863020

left   ...       0.00000000    -466.86605880
centre ...       0.21691371    -466.91756740
right  ...       0.43382742    -466.93863020
new    ...       0.47543431    -466.93908161

__s__    ...       0.04160689

 ALPHA AFTER:   0.47543430834642514     
  Cycle:     43 Energy:      -466.939082  Gnorm:      0.370384  CPU:    0.252
 Line minimisation2
 ALPHA BEFORE:   0.47543430834642514     
  ** Opt : line minimisation
left   ...       0.00000000    -466.93908161
centre ...       0.11885858    -466.97408272
right  ...       0.23771715    -467.00390592

left   ...       0.00000000    -466.93908161
centre ...       0.11885858    -466.97408272
right  ...       0.23771715    -467.00390592
new    ...       0.86287869    -467.07372933

__s__    ...       0.62516154

left   ...       0.11885858    -466.97408272
centre ...       0.23771715    -467.00390592
right  ...       0.86287869    -467.07372933
new    ...       0.84873090    -467.07378376

__s__    ...      -0.01414779

 ALPHA AFTER:   0.84873089880426911     
  Cycle:     44 Energy:      -467.073784  Gnorm:      0.437465  CPU:    0.261
 Perform trimming
 Line minimisation2
 ALPHA BEFORE:   0.84873089880426911     
  ** Opt : line minimisation
left   ...       0.00000000    -467.07378376
centre ...       0.21218272    -467.14014628
right  ...       0.42436545    -467.17050328

left   ...       0.00000000    -467.07378376
centre ...       0.21218272    -467.14014628
right  ...       0.42436545    -467.17050328
new    ...       0.49716976    -467.17238163

__s__    ...       0.07280431

 ALPHA AFTER:   0.49716976345032227     
  Cycle:     45 Energy:      -467.172382  Gnorm:      0.433509  CPU:    0.267
 Line minimisation2
 ALPHA BEFORE:   0.49716976345032227     
  ** Opt : line minimisation
left   ...       0.00000000    -467.17238163
centre ...       0.12429244    -467.22287644
right  ...       0.24858488    -467.26636106

left   ...       0.00000000    -467.17238163
centre ...       0.12429244    -467.22287644
right  ...       0.24858488    -467.26636106
new    ...       0.95743036    -467.38328426

__s__    ...       0.70884548

left   ...       0.12429244    -467.22287644
centre ...       0.24858488    -467.26636106
right  ...       0.95743036    -467.38328426
new    ...       0.97461062    -467.38323734

__s__    ...       0.01718026

 ALPHA AFTER:   0.95743035960592759     
  Cycle:     46 Energy:      -467.383284  Gnorm:      0.662409  CPU:    0.276
 Perform trimming
 Line minimisation2
 ALPHA BEFORE:   0.95743035960592759     
  ** Opt : line minimisation
left   ...       0.00000000    -467.38328426
centre ...       0.23935759    -467.50498357
right  ...       0.47871518    -467.58069007

left   ...       0.00000000    -467.38328426
centre ...       0.23935759    -467.50498357
right  ...       0.47871518    -467.58069007
new    ...       0.75303099    -467.61157805

__s__    ...       0.27431581

 ALPHA AFTER:   0.75303099197326562     
  Cycle:     47 Energy:      -467.611578  Gnorm:      0.624895  CPU:    0.283
 Line minimisation2
 ALPHA BEFORE:   0.75303099197326562     
  ** Opt : line minimisation
left   ...       0.00000000    -467.61157805
centre ...       0.18825775    -467.75467330
right  ...       0.37651550    -467.84054157

left   ...       0.00000000    -467.61157805
centre ...       0.18825775    -467.75467330
right  ...       0.37651550    -467.84054157
new    ...       0.56486466    -467.87181208

__s__    ...       0.18834916

 ALPHA AFTER:   0.56486465957173659     
  Cycle:     48 Energy:      -467.871812  Gnorm:      0.610149  CPU:    0.290
 Line minimisation2
 ALPHA BEFORE:   0.56486465957173659     
  ** Opt : line minimisation
left   ...       0.00000000    -467.87181208
centre ...       0.14121616    -467.98271505
right  ...       0.28243233    -468.06364710

left   ...       0.00000000    -467.87181208
centre ...       0.14121616    -467.98271505
right  ...       0.28243233    -468.06364710
new    ...       0.59315779    -468.13657979

__s__    ...       0.31072546

left   ...       0.14121616    -467.98271505
centre ...       0.28243233    -468.06364710
right  ...       0.59315779    -468.13657979
new    ...       0.59453514    -468.13657209

__s__    ...       0.00137734

 ALPHA AFTER:   0.59315779408026281     
  Cycle:     49 Energy:      -468.136580  Gnorm:      0.825877  CPU:    0.299
 Line minimisation2
 ALPHA BEFORE:   0.59315779408026281     
  ** Opt : line minimisation
left   ...       0.00000000    -468.13657979
centre ...       0.14828945    -468.29596850
right  ...       0.29657890    -468.30250707

left   ...       0.00000000    -468.13657979
centre ...       0.14828945    -468.29596850
right  ...       0.29657890    -468.30250707
new    ...       0.22877765    -468.31845941

__s__    ...      -0.06780125

 ALPHA AFTER:   0.22877764663147485     
  Cycle:     50 Energy:      -468.318459  Gnorm:      0.489871  CPU:    0.306
 Line minimisation2
 ALPHA BEFORE:   0.22877764663147485     
  ** Opt : line minimisation
left   ...       0.00000000    -468.31845941
centre ...       0.05719441    -468.34802602
right  ...       0.11438882    -468.37311833

left   ...       0.00000000    -468.31845941
centre ...       0.05719441    -468.34802602
right  ...       0.11438882    -468.37311833
new    ...       0.40654360    -468.42922980

__s__    ...       0.29215478

left   ...       0.05719441    -468.34802602
centre ...       0.11438882    -468.37311833
right  ...       0.40654360    -468.42922980
new    ...       0.39647651    -468.42933665

__s__    ...      -0.01006710

 ALPHA AFTER:   0.39647650606413343     
  Cycle:     51 Energy:      -468.429337  Gnorm:      0.429695  CPU:    0.316
 Line minimisation2
 ALPHA BEFORE:   0.39647650606413343     
  ** Opt : line minimisation
left   ...       0.00000000    -468.42933665
centre ...       0.09911913    -468.47022673
right  ...       0.19823825    -468.50876637

left   ...       0.00000000    -468.42933665
centre ...       0.09911913    -468.47022673
right  ...       0.19823825    -468.50876637
new    ...       1.19823825    -468.73866025

__s__    ...       1.00000000

left   ...       0.09911913    -468.47022673
centre ...       0.19823825    -468.50876637
right  ...       1.19823825    -468.73866025
new    ...       1.49319396    -468.75022253

__s__    ...       0.29495571

 ALPHA AFTER:    1.4931939637347769     
  Cycle:     52 Energy:      -468.750223  Gnorm:      0.719992  CPU:    0.325
 Perform trimming
 Line minimisation2
 ALPHA BEFORE:    1.4931939637347769     
  ** Opt : line minimisation
left   ...       0.00000000    -468.75022253
centre ...       0.37329849    -468.89172514
right  ...       0.74659698    -468.86061166

left   ...       0.00000000    -468.75022253
centre ...       0.37329849    -468.89172514
right  ...       0.74659698    -468.86061166
new    ...       0.49266192    -468.90091070

__s__    ...      -0.25393506

left   ...       0.37329849    -468.89172514
centre ...       0.49266192    -468.90091070
right  ...       0.74659698    -468.86061166
new    ...       0.49393223    -468.90091593

__s__    ...       0.00127031

 ALPHA AFTER:   0.49393222752690558     
  Cycle:     53 Energy:      -468.900916  Gnorm:      0.422632  CPU:    0.333
 Line minimisation2
 ALPHA BEFORE:   0.49393222752690558     
  ** Opt : line minimisation
left   ...       0.00000000    -468.90091593
centre ...       0.12348306    -468.94699573
right  ...       0.24696611    -468.98211098

left   ...       0.00000000    -468.90091593
centre ...       0.12348306    -468.94699573
right  ...       0.24696611    -468.98211098
new    ...       0.58069386    -469.02163955

__s__    ...       0.33372774

left   ...       0.12348306    -468.94699573
centre ...       0.24696611    -468.98211098
right  ...       0.58069386    -469.02163955
new    ...       0.57701748    -469.02164893

__s__    ...      -0.00367638

 ALPHA AFTER:   0.57701747823701743     
  Cycle:     54 Energy:      -469.021649  Gnorm:      0.418173  CPU:    0.342
 Line minimisation2
 ALPHA BEFORE:   0.57701747823701743     
  ** Opt : line minimisation
left   ...       0.00000000    -469.02164893
centre ...       0.14425437    -469.06891067
right  ...       0.28850874    -469.09309622

left   ...       0.00000000    -469.02164893
centre ...       0.14425437    -469.06891067
right  ...       0.28850874    -469.09309622
new    ...       0.36757074    -469.09629592

__s__    ...       0.07906200

 ALPHA AFTER:   0.36757074274908408     
  Cycle:     55 Energy:      -469.096296  Gnorm:      0.342918  CPU:    0.351
 Line minimisation2
 ALPHA BEFORE:   0.36757074274908408     
  ** Opt : line minimisation
left   ...       0.00000000    -469.09629592
centre ...       0.09189269    -469.11804898
right  ...       0.18378537    -469.13407980

left   ...       0.00000000    -469.09629592
centre ...       0.09189269    -469.11804898
right  ...       0.18378537    -469.13407980
new    ...       0.39527529    -469.15067738

__s__    ...       0.21148992

left   ...       0.09189269    -469.11804898
centre ...       0.18378537    -469.13407980
right  ...       0.39527529    -469.15067738
new    ...       0.41357290    -469.15074470

__s__    ...       0.01829761

 ALPHA AFTER:   0.41357289549841919     
  Cycle:     56 Energy:      -469.150745  Gnorm:      0.289638  CPU:    0.360
 Line minimisation2
 ALPHA BEFORE:   0.41357289549841919     
  ** Opt : line minimisation
left   ...       0.00000000    -469.15074470
centre ...       0.10339322    -469.16925380
right  ...       0.20678645    -469.18470966

left   ...       0.00000000    -469.15074470
centre ...       0.10339322    -469.16925380
right  ...       0.20678645    -469.18470966
new    ...       0.67847844    -469.21611381

__s__    ...       0.47169199

left   ...       0.10339322    -469.16925380
centre ...       0.20678645    -469.18470966
right  ...       0.67847844    -469.21611381
new    ...       0.67353655    -469.21610116

__s__    ...      -0.00494189

 ALPHA AFTER:   0.67847844193172413     
  Cycle:     57 Energy:      -469.216114  Gnorm:      0.335530  CPU:    0.368
 Line minimisation2
 ALPHA BEFORE:   0.67847844193172413     
  ** Opt : line minimisation
left   ...       0.00000000    -469.21611381
centre ...       0.16961961    -469.24841746
right  ...       0.33923922    -469.25755493

left   ...       0.00000000    -469.21611381
centre ...       0.16961961    -469.24841746
right  ...       0.33923922    -469.25755493
new    ...       0.32133266    -469.25770205

__s__    ...      -0.01790656

 ALPHA AFTER:   0.32133265867034955     
  Cycle:     58 Energy:      -469.257702  Gnorm:      0.221584  CPU:    0.375
 Line minimisation2
 ALPHA BEFORE:   0.32133265867034955     
  ** Opt : line minimisation
left   ...       0.00000000    -469.25770205
centre ...       0.08033316    -469.26662028
right  ...       0.16066633    -469.27403634

left   ...       0.00000000    -469.25770205
centre ...       0.08033316    -469.26662028
right  ...       0.16066633    -469.27403634
new    ...       0.51709517    -469.29159458

__s__    ...       0.35642884

left   ...       0.08033316    -469.26662028
centre ...       0.16066633    -469.27403634
right  ...       0.51709517    -469.29159458
new    ...       0.58874412    -469.29194616

__s__    ...       0.07164895

 ALPHA AFTER:   0.58874412431613232     
  Cycle:     59 Energy:      -469.291946  Gnorm:      0.240261  CPU:    0.385
 Line minimisation2
 ALPHA BEFORE:   0.58874412431613232     
  ** Opt : line minimisation
left   ...       0.00000000    -469.29194616
centre ...       0.14718603    -469.30621431
right  ...       0.29437206    -469.30997597

left   ...       0.00000000    -469.29194616
centre ...       0.14718603    -469.30621431
right  ...       0.29437206    -469.30997597
new    ...       0.27347645    -469.31010059

__s__    ...      -0.02089561

 ALPHA AFTER:   0.27347645421941141     
  Cycle:     60 Energy:      -469.310101  Gnorm:      0.174612  CPU:    0.392
 Line minimisation2
 ALPHA BEFORE:   0.27347645421941141     
  ** Opt : line minimisation
left   ...       0.00000000    -469.31010059
centre ...       0.06836911    -469.31457446
right  ...       0.13673823    -469.31838300

left   ...       0.00000000    -469.31010059
centre ...       0.06836911    -469.31457446
right  ...       0.13673823    -469.31838300
new    ...       0.49391962    -469.32761252

__s__    ...       0.35718139

left   ...       0.06836911    -469.31457446
centre ...       0.13673823    -469.31838300
right  ...       0.49391962    -469.32761252
new    ...       0.49942201    -469.32762780

__s__    ...       0.00550239

 ALPHA AFTER:   0.49942200934143172     
  Cycle:     61 Energy:      -469.327628  Gnorm:      0.192089  CPU:    0.400
 Line minimisation2
 ALPHA BEFORE:   0.49942200934143172     
  ** Opt : line minimisation
left   ...       0.00000000    -469.32762780
centre ...       0.12485550    -469.33689867
right  ...       0.24971100    -469.34377305

left   ...       0.00000000    -469.32762780
centre ...       0.12485550    -469.33689867
right  ...       0.24971100    -469.34377305
new    ...       0.54543395    -469.35058044

__s__    ...       0.29572294

left   ...       0.12485550    -469.33689867
centre ...       0.24971100    -469.34377305
right  ...       0.54543395    -469.35058044
new    ...       0.54866114    -469.35058126

__s__    ...       0.00322719

 ALPHA AFTER:   0.54866114146542444     
  Cycle:     62 Energy:      -469.350581  Gnorm:      0.168232  CPU:    0.409
 Line minimisation2
 ALPHA BEFORE:   0.54866114146542444     
  ** Opt : line minimisation
left   ...       0.00000000    -469.35058126
centre ...       0.13716529    -469.35795556
right  ...       0.27433057    -469.36236334

left   ...       0.00000000    -469.35058126
centre ...       0.13716529    -469.35795556
right  ...       0.27433057    -469.36236334
new    ...       0.40955434    -469.36344578

__s__    ...       0.13522377

 ALPHA AFTER:   0.40955433683477599     
  Cycle:     63 Energy:      -469.363446  Gnorm:      0.162882  CPU:    0.416
 Line minimisation2
 ALPHA BEFORE:   0.40955433683477599     
  ** Opt : line minimisation
left   ...       0.00000000    -469.36344578
centre ...       0.10238858    -469.36871414
right  ...       0.20477717    -469.37277102

left   ...       0.00000000    -469.36344578
centre ...       0.10238858    -469.36871414
right  ...       0.20477717    -469.37277102
new    ...       0.49645428    -469.37727372

__s__    ...       0.29167712

left   ...       0.10238858    -469.36871414
centre ...       0.20477717    -469.37277102
right  ...       0.49645428    -469.37727372
new    ...       0.47638049    -469.37729444

__s__    ...      -0.02007379

 ALPHA AFTER:   0.47638048905525537     
  Cycle:     64 Energy:      -469.377294  Gnorm:      0.152494  CPU:    0.424
 Line minimisation2
 ALPHA BEFORE:   0.47638048905525537     
  ** Opt : line minimisation
left   ...       0.00000000    -469.37729444
centre ...       0.11909512    -469.38311632
right  ...       0.23819024    -469.38755639

left   ...       0.00000000    -469.37729444
centre ...       0.11909512    -469.38311632
right  ...       0.23819024    -469.38755639
new    ...       0.56132010    -469.39420296

__s__    ...       0.32312986

left   ...       0.11909512    -469.38311632
centre ...       0.23819024    -469.38755639
right  ...       0.56132010    -469.39420296
new    ...       0.67189814    -469.39443521

__s__    ...       0.11057804

 ALPHA AFTER:   0.67189814311261709     
  Cycle:     65 Energy:      -469.394435  Gnorm:      0.165681  CPU:    0.433
 Line minimisation2
 ALPHA BEFORE:   0.67189814311261709     
  ** Opt : line minimisation
left   ...       0.00000000    -469.39443521
centre ...       0.16797454    -469.40316024
right  ...       0.33594907    -469.40915074

left   ...       0.00000000    -469.39443521
centre ...       0.16797454    -469.40316024
right  ...       0.33594907    -469.40915074
new    ...       0.61994025    -469.41289505

__s__    ...       0.28399118

left   ...       0.16797454    -469.40316024
centre ...       0.33594907    -469.40915074
right  ...       0.61994025    -469.41289505
new    ...       0.61049326    -469.41289677

__s__    ...      -0.00944699

 ALPHA AFTER:   0.61049326270092652     
  Cycle:     66 Energy:      -469.412897  Gnorm:      0.205260  CPU:    0.442
 Line minimisation2
 ALPHA BEFORE:   0.61049326270092652     
  ** Opt : line minimisation
left   ...       0.00000000    -469.41289677
centre ...       0.15262332    -469.42526010
right  ...       0.30524663    -469.43253865

left   ...       0.00000000    -469.41289677
centre ...       0.15262332    -469.42526010
right  ...       0.30524663    -469.43253865
new    ...       0.44740611    -469.43487323

__s__    ...       0.14215948

 ALPHA AFTER:   0.44740610705033973     
  Cycle:     67 Energy:      -469.434873  Gnorm:      0.172187  CPU:    0.449
 Line minimisation2
 ALPHA BEFORE:   0.44740610705033973     
  ** Opt : line minimisation
left   ...       0.00000000    -469.43487323
centre ...       0.11185153    -469.44147190
right  ...       0.22370305    -469.44600544

left   ...       0.00000000    -469.43487323
centre ...       0.11185153    -469.44147190
right  ...       0.22370305    -469.44600544
new    ...       0.41332167    -469.44892322

__s__    ...       0.18961862

left   ...       0.11185153    -469.44147190
centre ...       0.22370305    -469.44600544
right  ...       0.41332167    -469.44892322
new    ...       0.41075915    -469.44892407

__s__    ...      -0.00256252

 ALPHA AFTER:   0.41075914777728351     
  Cycle:     68 Energy:      -469.448924  Gnorm:      0.128028  CPU:    0.458
 Line minimisation2
 ALPHA BEFORE:   0.41075914777728351     
  ** Opt : line minimisation
left   ...       0.00000000    -469.44892407
centre ...       0.10268979    -469.45218842
right  ...       0.20537957    -469.45422581

left   ...       0.00000000    -469.44892407
centre ...       0.10268979    -469.45218842
right  ...       0.20537957    -469.45422581
new    ...       0.32455557    -469.45505835

__s__    ...       0.11917600

 ALPHA AFTER:   0.32455556990528517     
  Cycle:     69 Energy:      -469.455058  Gnorm:      0.098198  CPU:    0.464
 Line minimisation2
 ALPHA BEFORE:   0.32455556990528517     
  ** Opt : line minimisation
left   ...       0.00000000    -469.45505835
centre ...       0.08113889    -469.45662140
right  ...       0.16227778    -469.45767140

left   ...       0.00000000    -469.45505835
centre ...       0.08113889    -469.45662140
right  ...       0.16227778    -469.45767140
new    ...       0.28776694    -469.45828634

__s__    ...       0.12548915

 ALPHA AFTER:   0.28776693547660387     
  Cycle:     70 Energy:      -469.458286  Gnorm:      0.074672  CPU:    0.471
 Line minimisation2
 ALPHA BEFORE:   0.28776693547660387     
  ** Opt : line minimisation
left   ...       0.00000000    -469.45828634
centre ...       0.07194173    -469.45916135
right  ...       0.14388347    -469.45992808

left   ...       0.00000000    -469.45828634
centre ...       0.07194173    -469.45916135
right  ...       0.14388347    -469.45992808
new    ...       0.61737947    -469.46228167

__s__    ...       0.47349600

left   ...       0.07194173    -469.45916135
centre ...       0.14388347    -469.45992808
right  ...       0.61737947    -469.46228167
new    ...       0.61899491    -469.46228172

__s__    ...       0.00161545

 ALPHA AFTER:   0.61899491486926872     
  Cycle:     71 Energy:      -469.462282  Gnorm:      0.087568  CPU:    0.482
 Perform trimming
 Line minimisation2
 ALPHA BEFORE:   0.61899491486926872     
  ** Opt : line minimisation
left   ...       0.00000000    -469.46228172
centre ...       0.15474873    -469.46441969
right  ...       0.30949746    -469.46582758

left   ...       0.00000000    -469.46228172
centre ...       0.15474873    -469.46441969
right  ...       0.30949746    -469.46582758
new    ...       0.53053746    -469.46655292

__s__    ...       0.22104001

 ALPHA AFTER:   0.53053746477479524     
  Cycle:     72 Energy:      -469.466553  Gnorm:      0.081079  CPU:    0.489
 Line minimisation2
 ALPHA BEFORE:   0.53053746477479524     
  ** Opt : line minimisation
left   ...       0.00000000    -469.46655292
centre ...       0.13263437    -469.46819317
right  ...       0.26526873    -469.46908460

left   ...       0.00000000    -469.46655292
centre ...       0.13263437    -469.46819317
right  ...       0.26526873    -469.46908460
new    ...       0.35684947    -469.46926090

__s__    ...       0.09158074

 ALPHA AFTER:   0.35684947030308906     
  Cycle:     73 Energy:      -469.469261  Gnorm:      0.058509  CPU:    0.496
 Line minimisation2
 ALPHA BEFORE:   0.35684947030308906     
  ** Opt : line minimisation
left   ...       0.00000000    -469.46926090
centre ...       0.08921237    -469.46989760
right  ...       0.17842474    -469.47040392

left   ...       0.00000000    -469.46926090
centre ...       0.08921237    -469.46989760
right  ...       0.17842474    -469.47040392
new    ...       0.48023835    -469.47132592

__s__    ...       0.30181361

left   ...       0.08921237    -469.46989760
centre ...       0.17842474    -469.47040392
right  ...       0.48023835    -469.47132592
new    ...       0.55725043    -469.47127790

__s__    ...       0.07701208

 ALPHA AFTER:   0.48023834770089835     
  Cycle:     74 Energy:      -469.471326  Gnorm:      0.054263  CPU:    0.504
 Line minimisation2
 ALPHA BEFORE:   0.48023834770089835     
  ** Opt : line minimisation
left   ...       0.00000000    -469.47132592
centre ...       0.12005959    -469.47210011
right  ...       0.24011917    -469.47277907

left   ...       0.00000000    -469.47132592
centre ...       0.12005959    -469.47210011
right  ...       0.24011917    -469.47277907
new    ...       1.03615829    -469.47488581

__s__    ...       0.79603912

left   ...       0.12005959    -469.47210011
centre ...       0.24011917    -469.47277907
right  ...       1.03615829    -469.47488581
new    ...       1.04104528    -469.47488564

__s__    ...       0.00488699

 ALPHA AFTER:    1.0361582889801171     
  Cycle:     75 Energy:      -469.474886  Gnorm:      0.068635  CPU:    0.513
 Perform trimming
 Line minimisation2
 ALPHA BEFORE:    1.0361582889801171     
  ** Opt : line minimisation
left   ...       0.00000000    -469.47488581
centre ...       0.25903957    -469.47688183
right  ...       0.51807914    -469.47805284

left   ...       0.00000000    -469.47488581
centre ...       0.25903957    -469.47688183
right  ...       0.51807914    -469.47805284
new    ...       0.75623580    -469.47820593

__s__    ...       0.23815666

 ALPHA AFTER:   0.75623580199757368     
  Cycle:     76 Energy:      -469.478206  Gnorm:      0.091137  CPU:    0.520
 Perform trimming
 Line minimisation2
 ALPHA BEFORE:   0.75623580199757368     
  ** Opt : line minimisation
left   ...       0.00000000    -469.47820593
centre ...       0.18905895    -469.48063040
right  ...       0.37811790    -469.48200867

left   ...       0.00000000    -469.47820593
centre ...       0.18905895    -469.48063040
right  ...       0.37811790    -469.48200867
new    ...       0.53266037    -469.48234427

__s__    ...       0.15454247

 ALPHA AFTER:   0.53266037161039759     
  Cycle:     77 Energy:      -469.482344  Gnorm:      0.082497  CPU:    0.527
 Line minimisation2
 ALPHA BEFORE:   0.53266037161039759     
  ** Opt : line minimisation
left   ...       0.00000000    -469.48234427
centre ...       0.13316509    -469.48415140
right  ...       0.26633019    -469.48543644

left   ...       0.00000000    -469.48234427
centre ...       0.13316509    -469.48415140
right  ...       0.26633019    -469.48543644
new    ...       0.52751171    -469.48636780

__s__    ...       0.26118153

left   ...       0.13316509    -469.48415140
centre ...       0.26633019    -469.48543644
right  ...       0.52751171    -469.48636780
new    ...       0.51248706    -469.48636944

__s__    ...      -0.01502466

 ALPHA AFTER:   0.51248705722730215     
  Cycle:     78 Energy:      -469.486369  Gnorm:      0.084481  CPU:    0.536
 Line minimisation2
 ALPHA BEFORE:   0.51248705722730215     
  ** Opt : line minimisation
left   ...       0.00000000    -469.48636944
centre ...       0.12812176    -469.48832575
right  ...       0.25624353    -469.49007288

left   ...       0.00000000    -469.48636944
centre ...       0.12812176    -469.48832575
right  ...       0.25624353    -469.49007288
new    ...       1.25624353    -469.48897842

__s__    ...       1.00000000

left   ...       0.12812176    -469.48832575
centre ...       0.25624353    -469.49007288
right  ...       1.25624353    -469.48897842
new    ...       0.71433565    -469.49253012

__s__    ...      -0.54190788

left   ...       0.25624353    -469.49007288
centre ...       0.71433565    -469.49253012
right  ...       1.25624353    -469.48897842
new    ...       0.71032773    -469.49253018

__s__    ...      -0.00400791

 ALPHA AFTER:   0.71032773212053091     
  Cycle:     79 Energy:      -469.492530  Gnorm:      0.128089  CPU:    0.546
 Line minimisation2
 ALPHA BEFORE:   0.71032773212053091     
  ** Opt : line minimisation
left   ...       0.00000000    -469.49253018
centre ...       0.17758193    -469.49629773
right  ...       0.35516387    -469.49441824

left   ...       0.00000000    -469.49253018
centre ...       0.17758193    -469.49629773
right  ...       0.35516387    -469.49441824
new    ...       0.20726885    -469.49635620

__s__    ...      -0.14789502

left   ...       0.17758193    -469.49629773
centre ...       0.20726885    -469.49635620
right  ...       0.35516387    -469.49441824
new    ...       0.20402780    -469.49635771

__s__    ...      -0.00324104

 ALPHA AFTER:   0.20402780485264752     
  Cycle:     80 Energy:      -469.496358  Gnorm:      0.064434  CPU:    0.555
 Line minimisation2
 ALPHA BEFORE:   0.20402780485264752     
  ** Opt : line minimisation
left   ...       0.00000000    -469.49635771
centre ...       0.05100695    -469.49681001
right  ...       0.10201390    -469.49719469

left   ...       0.00000000    -469.49635771
centre ...       0.05100695    -469.49681001
right  ...       0.10201390    -469.49719469
new    ...       0.36676223    -469.49810474

__s__    ...       0.26474833

 ALPHA AFTER:   0.36676223284972709     
  Cycle:     81 Energy:      -469.498105  Gnorm:      0.050863  CPU:    0.561
 Line minimisation2
 ALPHA BEFORE:   0.36676223284972709     
  ** Opt : line minimisation
left   ...       0.00000000    -469.49810474
centre ...       0.09169056    -469.49860899
right  ...       0.18338112    -469.49901949

left   ...       0.00000000    -469.49810474
centre ...       0.09169056    -469.49860899
right  ...       0.18338112    -469.49901949
new    ...       0.53900196    -469.49972298

__s__    ...       0.35562084

 ALPHA AFTER:   0.53900195831885123     
  Cycle:     82 Energy:      -469.499723  Gnorm:      0.055259  CPU:    0.568
 Line minimisation2
 ALPHA BEFORE:   0.53900195831885123     
  ** Opt : line minimisation
left   ...       0.00000000    -469.49972298
centre ...       0.13475049    -469.50056831
right  ...       0.26950098    -469.50113809

left   ...       0.00000000    -469.49972298
centre ...       0.13475049    -469.50056831
right  ...       0.26950098    -469.50113809
new    ...       0.48077311    -469.50151563

__s__    ...       0.21127213

left   ...       0.13475049    -469.50056831
centre ...       0.26950098    -469.50113809
right  ...       0.48077311    -469.50151563
new    ...       0.50176889    -469.50151875

__s__    ...       0.02099577

 ALPHA AFTER:   0.50176888606255776     
  Cycle:     83 Energy:      -469.501519  Gnorm:      0.053034  CPU:    0.577
 Line minimisation2
 ALPHA BEFORE:   0.50176888606255776     
  ** Opt : line minimisation
left   ...       0.00000000    -469.50151875
centre ...       0.12544222    -469.50226100
right  ...       0.25088444    -469.50283671

left   ...       0.00000000    -469.50151875
centre ...       0.12544222    -469.50226100
right  ...       0.25088444    -469.50283671
new    ...       0.62180724    -469.50356522

__s__    ...       0.37092280

 ALPHA AFTER:   0.62180724155074463     
  Cycle:     84 Energy:      -469.503565  Gnorm:      0.046198  CPU:    0.584
 Line minimisation2
 ALPHA BEFORE:   0.62180724155074463     
  ** Opt : line minimisation
left   ...       0.00000000    -469.50356522
centre ...       0.15545181    -469.50423508
right  ...       0.31090362    -469.50469838

left   ...       0.00000000    -469.50356522
centre ...       0.15545181    -469.50423508
right  ...       0.31090362    -469.50469838
new    ...       0.58184310    -469.50501208

__s__    ...       0.27093948

 ALPHA AFTER:   0.58184310413702400     
  Cycle:     85 Energy:      -469.505012  Gnorm:      0.043704  CPU:    0.591
 Line minimisation2
 ALPHA BEFORE:   0.58184310413702400     
  ** Opt : line minimisation
left   ...       0.00000000    -469.50501208
centre ...       0.14546078    -469.50555262
right  ...       0.29092155    -469.50590100

left   ...       0.00000000    -469.50501208
centre ...       0.14546078    -469.50555262
right  ...       0.29092155    -469.50590100
new    ...       0.48187849    -469.50606670

__s__    ...       0.19095694

 ALPHA AFTER:   0.48187848877920059     
  Cycle:     86 Energy:      -469.506067  Gnorm:      0.048943  CPU:    0.598
 Line minimisation2
 ALPHA BEFORE:   0.48187848877920059     
  ** Opt : line minimisation
left   ...       0.00000000    -469.50606670
centre ...       0.12046962    -469.50667762
right  ...       0.24093924    -469.50716294

left   ...       0.00000000    -469.50606670
centre ...       0.12046962    -469.50667762
right  ...       0.24093924    -469.50716294
new    ...       0.64621449    -469.50787299

__s__    ...       0.40527525

 ALPHA AFTER:   0.64621448946445115     
  Cycle:     87 Energy:      -469.507873  Gnorm:      0.055925  CPU:    0.605
 Line minimisation2
 ALPHA BEFORE:   0.64621448946445115     
  ** Opt : line minimisation
left   ...       0.00000000    -469.50787299
centre ...       0.16155362    -469.50885275
right  ...       0.32310724    -469.50952051

left   ...       0.00000000    -469.50787299
centre ...       0.16155362    -469.50885275
right  ...       0.32310724    -469.50952051
new    ...       0.58810378    -469.50987692

__s__    ...       0.26499653

 ALPHA AFTER:   0.58810377508738287     
  Cycle:     88 Energy:      -469.509877  Gnorm:      0.047974  CPU:    0.611
 Line minimisation2
 ALPHA BEFORE:   0.58810377508738287     
  ** Opt : line minimisation
left   ...       0.00000000    -469.50987692
centre ...       0.14702594    -469.51055966
right  ...       0.29405189    -469.51109315

left   ...       0.00000000    -469.50987692
centre ...       0.14702594    -469.51055966
right  ...       0.29405189    -469.51109315
new    ...       0.74603221    -469.51197515

__s__    ...       0.45198032

left   ...       0.14702594    -469.51055966
centre ...       0.29405189    -469.51109315
right  ...       0.74603221    -469.51197515
new    ...       0.86854161    -469.51192452

__s__    ...       0.12250941

 ALPHA AFTER:   0.74603220588986652     
  Cycle:     89 Energy:      -469.511975  Gnorm:      0.081445  CPU:    0.620
 Line minimisation2
 ALPHA BEFORE:   0.74603220588986652     
  ** Opt : line minimisation
left   ...       0.00000000    -469.51197515
centre ...       0.18650805    -469.51331525
right  ...       0.37301610    -469.51163020

left   ...       0.00000000    -469.51197515
centre ...       0.18650805    -469.51331525
right  ...       0.37301610    -469.51163020
new    ...       0.17587448    -469.51332018

__s__    ...      -0.19714162

 ALPHA AFTER:   0.17587448475730547     
  Cycle:     90 Energy:      -469.513320  Gnorm:      0.042221  CPU:    0.627
 Line minimisation2
 ALPHA BEFORE:   0.17587448475730547     
  ** Opt : line minimisation
left   ...       0.00000000    -469.51332018
centre ...       0.04396862    -469.51349663
right  ...       0.08793724    -469.51366331

left   ...       0.00000000    -469.51332018
centre ...       0.04396862    -469.51349663
right  ...       0.08793724    -469.51366331
new    ...       0.81623203    -469.51500474

__s__    ...       0.72829478

 ALPHA AFTER:   0.81623202516105475     
  Cycle:     91 Energy:      -469.515005  Gnorm:      0.050243  CPU:    0.634
 Perform trimming
 Line minimisation2
 ALPHA BEFORE:   0.81623202516105475     
  ** Opt : line minimisation
left   ...       0.00000000    -469.51500474
centre ...       0.20405801    -469.51583532
right  ...       0.40811601    -469.51630289

left   ...       0.00000000    -469.51500474
centre ...       0.20405801    -469.51583532
right  ...       0.40811601    -469.51630289
new    ...       0.56893149    -469.51641597

__s__    ...       0.16081547

 ALPHA AFTER:   0.56893148505900515     
  Cycle:     92 Energy:      -469.516416  Gnorm:      0.042285  CPU:    0.640
 Line minimisation2
 ALPHA BEFORE:   0.56893148505900515     
  ** Opt : line minimisation
left   ...       0.00000000    -469.51641597
centre ...       0.14223287    -469.51689873
right  ...       0.28446574    -469.51717016

left   ...       0.00000000    -469.51641597
centre ...       0.14223287    -469.51689873
right  ...       0.28446574    -469.51717016
new    ...       0.39603740    -469.51723511

__s__    ...       0.11157166

 ALPHA AFTER:   0.39603739801166671     
  Cycle:     93 Energy:      -469.517235  Gnorm:      0.034281  CPU:    0.647
 Line minimisation2
 ALPHA BEFORE:   0.39603739801166671     
  ** Opt : line minimisation
left   ...       0.00000000    -469.51723511
centre ...       0.09900935    -469.51748274
right  ...       0.19801870    -469.51769065

left   ...       0.00000000    -469.51723511
centre ...       0.09900935    -469.51748274
right  ...       0.19801870    -469.51769065
new    ...       0.66673297    -469.51813616

__s__    ...       0.46871427

 ALPHA AFTER:   0.66673296761052758     
  Cycle:     94 Energy:      -469.518136  Gnorm:      0.040714  CPU:    0.654
 Perform trimming
 Line minimisation2
 ALPHA BEFORE:   0.66673296761052758     
  ** Opt : line minimisation
left   ...       0.00000000    -469.51813616
centre ...       0.16668324    -469.51867664
right  ...       0.33336648    -469.51906899

left   ...       0.00000000    -469.51813616
centre ...       0.16668324    -469.51867664
right  ...       0.33336648    -469.51906899
new    ...       0.69146397    -469.51941059

__s__    ...       0.35809748

 ALPHA AFTER:   0.69146396731364035     
  Cycle:     95 Energy:      -469.519411  Gnorm:      0.043630  CPU:    0.660
 Line minimisation2
 ALPHA BEFORE:   0.69146396731364035     
  ** Opt : line minimisation
left   ...       0.00000000    -469.51941059
centre ...       0.17286599    -469.52002760
right  ...       0.34573198    -469.52032881

left   ...       0.00000000    -469.51941059
centre ...       0.17286599    -469.52002760
right  ...       0.34573198    -469.52032881
new    ...       0.42417943    -469.52036117

__s__    ...       0.07844745

 ALPHA AFTER:   0.42417942932812175     
  Cycle:     96 Energy:      -469.520361  Gnorm:      0.040729  CPU:    0.667
 Line minimisation2
 ALPHA BEFORE:   0.42417942932812175     
  ** Opt : line minimisation
left   ...       0.00000000    -469.52036117
centre ...       0.10604486    -469.52072969
right  ...       0.21208971    -469.52099960

left   ...       0.00000000    -469.52036117
centre ...       0.10604486    -469.52072969
right  ...       0.21208971    -469.52099960
new    ...       0.44929252    -469.52135906

__s__    ...       0.23720280

left   ...       0.10604486    -469.52072969
centre ...       0.21208971    -469.52099960
right  ...       0.44929252    -469.52135906
new    ...       0.58325936    -469.52138676

__s__    ...       0.13396684

 ALPHA AFTER:   0.58325936081349927     
  Cycle:     97 Energy:      -469.521387  Gnorm:      0.034966  CPU:    0.676
 Line minimisation2
 ALPHA BEFORE:   0.58325936081349927     
  ** Opt : line minimisation
left   ...       0.00000000    -469.52138676
centre ...       0.14581484    -469.52172620
right  ...       0.29162968    -469.52197224

left   ...       0.00000000    -469.52138676
centre ...       0.14581484    -469.52172620
right  ...       0.29162968    -469.52197224
new    ...       0.60286179    -469.52218500

__s__    ...       0.31123211

 ALPHA AFTER:   0.60286178797155443     
  Cycle:     98 Energy:      -469.522185  Gnorm:      0.044555  CPU:    0.683
 Perform trimming
 Line minimisation2
 ALPHA BEFORE:   0.60286178797155443     
  ** Opt : line minimisation
left   ...       0.00000000    -469.52218500
centre ...       0.15071545    -469.52276340
right  ...       0.30143089    -469.52318744

left   ...       0.00000000    -469.52218500
centre ...       0.15071545    -469.52276340
right  ...       0.30143089    -469.52318744
new    ...       0.64007103    -469.52357632

__s__    ...       0.33864013

left   ...       0.15071545    -469.52276340
centre ...       0.30143089    -469.52318744
right  ...       0.64007103    -469.52357632
new    ...       0.63949667    -469.52357632

__s__    ...      -0.00057435

 ALPHA AFTER:   0.63949667359820594     
  Cycle:     99 Energy:      -469.523576  Gnorm:      0.066741  CPU:    0.692
 Line minimisation2
 ALPHA BEFORE:   0.63949667359820594     
  ** Opt : line minimisation
left   ...       0.00000000    -469.52357632
centre ...       0.15987417    -469.52458270
right  ...       0.31974834    -469.52432150

left   ...       0.00000000    -469.52357632
centre ...       0.15987417    -469.52458270
right  ...       0.31974834    -469.52432150
new    ...       0.20686784    -469.52463738

__s__    ...      -0.11288049

 ALPHA AFTER:   0.20686784452031967     
  Cycle:    100 Energy:      -469.524637  Gnorm:      0.037900  CPU:    0.698
 Line minimisation2
 ALPHA BEFORE:   0.20686784452031967     
  ** Opt : line minimisation
left   ...       0.00000000    -469.52463738
centre ...       0.05171696    -469.52479886
right  ...       0.10343392    -469.52493982

left   ...       0.00000000    -469.52463738
centre ...       0.05171696    -469.52479886
right  ...       0.10343392    -469.52493982
new    ...       0.43263959    -469.52535569

__s__    ...       0.32920566

 ALPHA AFTER:   0.43263958683381976     
  Cycle:    101 Energy:      -469.525356  Gnorm:      0.032381  CPU:    0.705
 Line minimisation2
 ALPHA BEFORE:   0.43263958683381976     
  ** Opt : line minimisation
left   ...       0.00000000    -469.52535569
centre ...       0.10815990    -469.52559762
right  ...       0.21631979    -469.52579771

left   ...       0.00000000    -469.52535569
centre ...       0.10815990    -469.52559762
right  ...       0.21631979    -469.52579771
new    ...       0.67939869    -469.52618065

__s__    ...       0.46307890

 ALPHA AFTER:   0.67939869337485592     
  Cycle:    102 Energy:      -469.526181  Gnorm:      0.039601  CPU:    0.712
 Perform trimming
 Line minimisation2
 ALPHA BEFORE:   0.67939869337485592     
  ** Opt : line minimisation
left   ...       0.00000000    -469.52618065
centre ...       0.16984967    -469.52662832
right  ...       0.33969935    -469.52690569

left   ...       0.00000000    -469.52618065
centre ...       0.16984967    -469.52662832
right  ...       0.33969935    -469.52690569
new    ...       0.53142121    -469.52701452

__s__    ...       0.19172186

 ALPHA AFTER:   0.53142120817645178     
  Cycle:    103 Energy:      -469.527015  Gnorm:      0.036423  CPU:    0.719
 Line minimisation2
 ALPHA BEFORE:   0.53142120817645178     
  ** Opt : line minimisation
left   ...       0.00000000    -469.52701452
centre ...       0.13285530    -469.52736919
right  ...       0.26571060    -469.52761388

left   ...       0.00000000    -469.52701452
centre ...       0.13285530    -469.52736919
right  ...       0.26571060    -469.52761388
new    ...       0.49488931    -469.52777709

__s__    ...       0.22917871

 ALPHA AFTER:   0.49488931082688631     
[...]

left   ...       0.00000000    -469.54241580
centre ...       0.09737861    -469.54251179
right  ...       0.19475722    -469.54258963
new    ...       0.56378458    -469.54254497

__s__    ...       0.36902737

left   ...       0.09737861    -469.54251179
centre ...       0.19475722    -469.54258963
right  ...       0.56378458    -469.54254497
new    ...       0.34860822    -469.54250063

__s__    ...      -0.21517637

left   ...       0.09737861    -469.54251179
centre ...       0.19475722    -469.54258963
right  ...       0.34860822    -469.54250063
new    ...       0.21894682    -469.54260615

__s__    ...      -0.12966139

left   ...       0.19475722    -469.54258963
centre ...       0.21894682    -469.54260615
right  ...       0.34860822    -469.54250063
new    ...       0.24195581    -469.54262083

__s__    ...       0.02300898

 ALPHA AFTER:   0.24195580598393132     
  Cycle:    122 Energy:      -469.542621  Gnorm:      0.014849  CPU:    0.877
 Line minimisation2
 ALPHA BEFORE:   0.24195580598393132     
  ** Opt : line minimisation
left   ...       0.00000000    -469.54262083
centre ...       0.06048895    -469.54247654
right  ...      -0.06048895    -469.54258847

left   ...      -0.06048895    -469.54258847
centre ...       0.00000000    -469.54262083
right  ...       0.06048895    -469.54247654
new    ...      -0.01916383    -469.54261075

__s__    ...       0.04132512

left   ...      -0.01916383    -469.54261075
centre ...       0.00000000    -469.54262083
right  ...       0.06048895    -469.54247654
new    ...      -0.00239038    -469.54261958

__s__    ...       0.01677345

left   ...      -0.00239038    -469.54261958
centre ...       0.00000000    -469.54262083
right  ...       0.06048895    -469.54247654
new    ...       0.00444844    -469.54262314

__s__    ...       0.00683883

 ALPHA AFTER:    4.4484448218081027E-003
  Cycle:    123 Energy:      -469.542623  Gnorm:      0.014791  CPU:    0.887
 Line minimisation2
 ALPHA BEFORE:    4.4484448218081027E-003
  ** Opt : line minimisation
left   ...       0.00000000    -469.54262314
centre ...       0.00111211    -469.54262370
right  ...       0.00222422    -469.54262427

left   ...       0.00000000    -469.54262314
centre ...       0.00111211    -469.54262370
right  ...       0.00222422    -469.54262427
new    ...       1.00222422    -469.54273912

__s__    ...       1.00000000

left   ...       0.00111211    -469.54262370
centre ...       0.00222422    -469.54262427
right  ...       1.00222422    -469.54273912
new    ...       0.64904014    -469.54268620

__s__    ...      -0.35318409

left   ...       0.00222422    -469.54262427
centre ...       0.64904014    -469.54268620
right  ...       1.00222422    -469.54273912
new    ...       1.64904014    -469.54269597

__s__    ...       1.00000000

 ALPHA AFTER:    1.0022242224109041     
  Cycle:    124 Energy:      -469.542739  Gnorm:      0.024046  CPU:    0.897
 Perform trimming
 Line minimisation2
 ALPHA BEFORE:    1.0022242224109041     
  ** Opt : line minimisation
left   ...       0.00000000    -469.54273912
centre ...       0.25055606    -469.54290288
right  ...       0.50111211    -469.54302628

left   ...       0.00000000    -469.54273912
centre ...       0.25055606    -469.54290288
right  ...       0.50111211    -469.54302628
new    ...       1.14170100    -469.54315837

__s__    ...       0.64058889

 ALPHA AFTER:    1.1417010019869389     
  Cycle:    125 Energy:      -469.543158  Gnorm:      0.022891  CPU:    0.905
 Perform trimming
 Line minimisation2
 ALPHA BEFORE:    1.1417010019869389     
  ** Opt : line minimisation
left   ...       0.00000000    -469.54315837
centre ...       0.28542525    -469.54337446
right  ...       0.57085050    -469.54320260

left   ...       0.00000000    -469.54315837
centre ...       0.28542525    -469.54337446
right  ...       0.57085050    -469.54320260
new    ...       0.30169653    -469.54338036

__s__    ...      -0.26915397

left   ...       0.28542525    -469.54337446
centre ...       0.30169653    -469.54338036
right  ...       0.57085050    -469.54320260
new    ...       0.34416561    -469.54339251

__s__    ...       0.04246908

 ALPHA AFTER:   0.34416560741365715     
  Cycle:    126 Energy:      -469.543393  Gnorm:      0.012286  CPU:    0.913
 Line minimisation2
 ALPHA BEFORE:   0.34416560741365715     
  ** Opt : line minimisation
left   ...       0.00000000    -469.54339251
centre ...       0.08604140    -469.54342657
right  ...       0.17208280    -469.54328180

left   ...       0.00000000    -469.54339251
centre ...       0.08604140    -469.54342657
right  ...       0.17208280    -469.54328180
new    ...       0.05940851    -469.54341644

__s__    ...      -0.11267429

left   ...       0.05940851    -469.54341644
centre ...       0.08604140    -469.54342657
right  ...       0.17208280    -469.54328180
new    ...       0.08311469    -469.54342547

__s__    ...       0.02370618

left   ...       0.08311469    -469.54342547
centre ...       0.08604140    -469.54342657
right  ...       0.17208280    -469.54328180
new    ...       0.09267344    -469.54342904

__s__    ...       0.00955874

 ALPHA AFTER:    9.2673439290077750E-002
  Cycle:    127 Energy:      -469.543429  Gnorm:      0.010608  CPU:    0.924
 Line minimisation2
 ALPHA BEFORE:    9.2673439290077750E-002
  ** Opt : line minimisation
left   ...       0.00000000    -469.54342904
centre ...       0.02316836    -469.54343420
right  ...       0.04633672    -469.54343919

left   ...       0.00000000    -469.54342904
centre ...       0.02316836    -469.54343420
right  ...       0.04633672    -469.54343919
new    ...       0.68203328    -469.54333147

__s__    ...       0.63569656

left   ...       0.02316836    -469.54343420
centre ...       0.04633672    -469.54343919
right  ...       0.68203328    -469.54333147
new    ...       0.21908764    -469.54347075

__s__    ...      -0.46294564

left   ...       0.04633672    -469.54343919
centre ...       0.21908764    -469.54347075
right  ...       0.68203328    -469.54333147
new    ...       0.25280417    -469.54347576

__s__    ...       0.03371654

 ALPHA AFTER:   0.25280417381835341     
  Cycle:    128 Energy:      -469.543476  Gnorm:      0.009113  CPU:    0.933
 Line minimisation2
 ALPHA BEFORE:   0.25280417381835341     
  ** Opt : line minimisation
left   ...       0.00000000    -469.54347576
centre ...       0.06320104    -469.54348848
right  ...       0.12640209    -469.54350067

left   ...       0.00000000    -469.54347576
centre ...       0.06320104    -469.54348848
right  ...       0.12640209    -469.54350067
new    ...       1.12640209    -469.54362320

__s__    ...       1.00000000

left   ...       0.06320104    -469.54348848
centre ...       0.12640209    -469.54350067
right  ...       1.12640209    -469.54362320
new    ...       1.55199199    -469.54363516

__s__    ...       0.42558990

 ALPHA AFTER:    1.5519919875241222     
  Cycle:    129 Energy:      -469.543635  Gnorm:      0.021028  CPU:    0.942
 Perform trimming
 Line minimisation2
 ALPHA BEFORE:    1.5519919875241222     
  ** Opt : line minimisation
left   ...       0.00000000    -469.54363516
centre ...       0.38799800    -469.54351007
right  ...      -0.38799800    -469.54313525

left   ...      -0.38799800    -469.54313525
centre ...       0.00000000    -469.54363516
right  ...       0.38799800    -469.54351007
new    ...       0.11634377    -469.54352222

__s__    ...       0.50434177

left   ...      -0.38799800    -469.54313525
centre ...       0.00000000    -469.54363516
right  ...       0.11634377    -469.54352222
new    ...      -0.05018166    -469.54359591

__s__    ...      -0.16652543

left   ...      -0.05018166    -469.54359591
centre ...       0.00000000    -469.54363516
right  ...       0.11634377    -469.54352222
new    ...       0.01206248    -469.54364347

__s__    ...       0.06224414

left   ...       0.00000000    -469.54363516
centre ...       0.01206248    -469.54364347
right  ...       0.11634377    -469.54352222
new    ...       0.02767834    -469.54365359

__s__    ...       0.01561586

left   ...       0.01206248    -469.54364347
centre ...       0.02767834    -469.54365359
right  ...       0.11634377    -469.54352222
new    ...       0.03573165    -469.54365852

__s__    ...       0.00805331

left   ...       0.02767834    -469.54365359
centre ...       0.03573165    -469.54365852
right  ...       0.11634377    -469.54352222
new    ...       0.04349247    -469.54366309

__s__    ...       0.00776082

 ALPHA AFTER:    4.3492471123625226E-002
  Cycle:    130 Energy:      -469.543663  Gnorm:      0.017225  CPU:    0.959
 Line minimisation2
 ALPHA BEFORE:    4.3492471123625226E-002
  ** Opt : line minimisation
left   ...       0.00000000    -469.54366309
centre ...       0.01087312    -469.54366945
right  ...       0.02174624    -469.54367546

left   ...       0.00000000    -469.54366309
centre ...       0.01087312    -469.54366945
right  ...       0.02174624    -469.54367546
new    ...       0.20379766    -469.54354942

__s__    ...       0.18205142

left   ...       0.01087312    -469.54366945
centre ...       0.02174624    -469.54367546
right  ...       0.20379766    -469.54354942
new    ...       0.05913640    -469.54351848

__s__    ...      -0.14466125

left   ...       0.01087312    -469.54366945
centre ...       0.02174624    -469.54367546
right  ...       0.05913640    -469.54351848
new    ...       0.01911735    -469.54367404

__s__    ...      -0.04001906

left   ...       0.01911735    -469.54367404
centre ...       0.02174624    -469.54367546
right  ...       0.05913640    -469.54351848
new    ...       0.02271452    -469.54367598

__s__    ...       0.00359717

 ALPHA AFTER:    2.2714521602977739E-002
  Cycle:    131 Energy:      -469.543676  Gnorm:      0.015320  CPU:    0.971
 Line minimisation2
 ALPHA BEFORE:    2.2714521602977739E-002
  ** Opt : line minimisation
left   ...       0.00000000    -469.54367598
centre ...       0.00567863    -469.54367872
right  ...       0.01135726    -469.54350639

left   ...       0.00000000    -469.54367598
centre ...       0.00567863    -469.54367872
right  ...       0.01135726    -469.54350639
new    ...       0.00292834    -469.54367740

__s__    ...      -0.00842892

 ALPHA AFTER:    5.6786304007444346E-003
  Cycle:    132 Energy:      -469.543679  Gnorm:      0.014904  CPU:    0.978
 Line minimisation2
 ALPHA BEFORE:    5.6786304007444346E-003
  ** Opt : line minimisation
left   ...       0.00000000    -469.54367872
centre ...       0.00141966    -469.54367943
right  ...       0.00283932    -469.54368013

left   ...       0.00000000    -469.54367872
centre ...       0.00141966    -469.54367943
right  ...       0.00283932    -469.54368013
new    ...       0.19610278    -469.54355285

__s__    ...       0.19326346

left   ...       0.00141966    -469.54367943
centre ...       0.00283932    -469.54368013
right  ...       0.19610278    -469.54355285
new    ...       0.04388449    -469.54352322

__s__    ...      -0.15221829

left   ...       0.00141966    -469.54367943
centre ...       0.00283932    -469.54368013
right  ...       0.04388449    -469.54352322
new    ...       0.00456236    -469.54350598

__s__    ...      -0.03932213

 ALPHA AFTER:    2.8393152003722173E-003
  Cycle:    133 Energy:      -469.543680  Gnorm:      0.014688  CPU:    0.988
 Line minimisation2
 ALPHA BEFORE:    2.8393152003722173E-003
  ** Opt : line minimisation
left   ...       0.00000000    -469.54368013
centre ...       0.00070983    -469.54368048
right  ...       0.00141966    -469.54368083

left   ...       0.00000000    -469.54368013
centre ...       0.00070983    -469.54368048
right  ...       0.00141966    -469.54368083
new    ...       0.19579426    -469.54355330

__s__    ...       0.19437460

left   ...       0.00070983    -469.54368048
centre ...       0.00141966    -469.54368083
right  ...       0.19579426    -469.54355330
new    ...       0.04268470    -469.54352382

__s__    ...      -0.15310955

left   ...       0.00070983    -469.54368048
centre ...       0.00141966    -469.54368083
right  ...       0.04268470    -469.54352382
new    ...       0.00345179    -469.54350681

__s__    ...      -0.03923292

 ALPHA AFTER:    1.4196576001861087E-003
  Cycle:    134 Energy:      -469.543681  Gnorm:      0.014582  CPU:    0.998
 Line minimisation2
 ALPHA BEFORE:    1.4196576001861087E-003
  ** Opt : line minimisation
left   ...       0.00000000    -469.54368083
centre ...       0.00035491    -469.54350600
right  ...      -0.00035491    -469.54368065

left   ...      -0.00035491    -469.54368065
centre ...       0.00000000    -469.54368083
right  ...       0.00035491    -469.54350600
new    ...      -0.00017711    -469.54368074

__s__    ...       0.00017781

 ALPHA AFTER:   -1.7710613166292395E-004
  Cycle:    135 Energy:      -469.543681  Gnorm:      0.014582  CPU:    1.005
 Line minimisation2
 ALPHA BEFORE:    1.4196576001861087E-003
  ** Opt : line minimisation
left   ...       0.00000000    -469.54368083
centre ...       0.00035491    -469.54350600
right  ...      -0.00035491    -469.54368065

left   ...      -0.00035491    -469.54368065
centre ...       0.00000000    -469.54368083
right  ...       0.00035491    -469.54350600
new    ...      -0.00017710    -469.54368074

__s__    ...       0.00017781

 ALPHA AFTER:   -1.7710360411019916E-004
  Cycle:    136 Energy:      -469.543681  Gnorm:      0.014582  CPU:    1.013
 Line minimisation2
 ALPHA BEFORE:    1.4196576001861087E-003
  ** Opt : line minimisation
left   ...       0.00000000    -469.54368083
centre ...       0.00035491    -469.54350600
right  ...      -0.00035491    -469.54368065

left   ...      -0.00035491    -469.54368065
centre ...       0.00000000    -469.54368083
right  ...       0.00035491    -469.54350600
new    ...      -0.00017710    -469.54368074

__s__    ...       0.00017781

 ALPHA AFTER:   -1.7710360411019916E-004


  **** Conditions for a minimum have not been satisfied. However ****
  **** no lower point can be found - treat results with caution  ****
  **** unless gradient norm is small (less than 0.1)             ****


  Final energy =    -469.54368083 eV
  Final Gnorm  =       0.01458200

  Components of energy : 

--------------------------------------------------------------------------------
  Interatomic potentials     =          75.67373227 eV    
  Monopole - monopole (real) =        -292.57538580 eV    
  Monopole - monopole (recip)=        -252.64202729 eV    
  Monopole - monopole (total)=        -545.21741310 eV    
--------------------------------------------------------------------------------
  Total lattice energy       =        -469.54368083 eV    
--------------------------------------------------------------------------------
  Total lattice energy       =          -45303.7876 kJ/(mole unit cells)
--------------------------------------------------------------------------------

  Final fractional coordinates of atoms :

--------------------------------------------------------------------------------
   No.  Atomic        x           y          z          Radius
        Label       (Frac)      (Frac)     (Frac)       (Angs) 
--------------------------------------------------------------------------------
     1  O     c     0.000000    0.333330    0.833330    0.000000
     2  O     c     0.837352    0.471549    0.181700    0.000000
     3  O     c     0.495206    0.641240    0.232592    0.000000
     4  O     c     0.081076    0.961130    0.063387    0.000000
     5  O     c     0.418583    0.313025    0.048172    0.000000
     6  O     c     0.341037    0.120395    0.768727    0.000000
     7  O     c     0.212645    0.820154    0.576379    0.000000
     8  O     c     0.635823    0.874907    0.756829    0.000000
     9  O     c     0.513586    0.198598    0.422703    0.000000
    10  Sr    c     0.706212    0.985848    0.047406    0.000000
    11  Sr    c     0.918002    0.663498    0.815673    0.000000
    12  Sr    c     0.145923    0.662760    0.325768    0.000000
    13  Ti    c     0.571014    0.414419    0.223116    0.000000
    14  Ti    c     0.205724    0.197368    0.917983    0.000000
    15  Ti    c     0.431339    0.996391    0.624306    0.000000
--------------------------------------------------------------------------------

  Final Cartesian lattice vectors (Angstroms) :

        6.450092   -0.679137   -0.264503
       -0.679137    6.809381    0.777853
       -0.529005    1.555706    7.586092


  Final cell parameters and derivatives :

--------------------------------------------------------------------------------
       a            6.491138 Angstrom     dE/de1(xx)    -0.015332 eV/strain
       b            6.887231 Angstrom     dE/de2(yy)     0.011670 eV/strain
       c            7.762014 Angstrom     dE/de3(zz)    -0.017046 eV/strain
       alpha       71.623363 Degrees      dE/de4(yz)    -0.030831 eV/strain
       beta        97.383874 Degrees      dE/de5(xz)    -0.036128 eV/strain
       gamma      101.889770 Degrees      dE/de6(xy)    -0.006443 eV/strain
--------------------------------------------------------------------------------

  Primitive cell volume =           321.491657 Angs**3

  Density of cell =      2.843437 g/cm**3

  Non-primitive cell volume =           321.491657 Angs**3


  Final internal derivatives :

--------------------------------------------------------------------------------
   No.  Atomic          a             b             c           Radius
        Label          (eV)          (eV)          (eV)        (eV/Angs)
--------------------------------------------------------------------------------
      1 O     c       0.000000      0.000000      0.000000      0.000000
      2 O     c       0.001117      0.007879      0.041680      0.000000
      3 O     c       0.042266      0.107546      0.060247      0.000000
      4 O     c       0.045105      0.049426      0.052406      0.000000
      5 O     c       0.199628      0.188124      0.142423      0.000000
      6 O     c       0.177799     -0.094671     -0.275052      0.000000
      7 O     c      -0.001011     -0.074661     -0.069322      0.000000
      8 O     c       0.054809      0.038450     -0.051192      0.000000
      9 O     c       0.055686     -0.019770     -0.110332      0.000000
     10 Sr    c       0.075830      0.069685     -0.055717      0.000000
     11 Sr    c       0.098150      0.069585      0.028242      0.000000
     12 Sr    c       0.078837      0.052362     -0.035872      0.000000
     13 Ti    c       0.032665      0.038489     -0.098050      0.000000
     14 Ti    c       0.054959     -0.001519     -0.041148      0.000000
     15 Ti    c      -0.048373      0.215026      0.333706      0.000000
--------------------------------------------------------------------------------
  Maximum abs         0.199628      0.215026      0.333706      0.000000
--------------------------------------------------------------------------------


  Time to end of optimisation =       1.0197 seconds

 Exiting ------OPTIONS------

  Peak dynamic memory used =       0.55 MB 


  Timing analysis for GULP :

--------------------------------------------------------------------------------
  Task / Subroutine                                          Time (Seconds)
--------------------------------------------------------------------------------
  Calculation of reciprocal space energy and derivatives          0.0705
  Calculation of real space energy and derivatives                0.9320
  Global summation overhead                                       0.0004
--------------------------------------------------------------------------------
  Total CPU time                                                  1.0197
--------------------------------------------------------------------------------


  Job Finished at 16:25.18  3rd February   2020                               

