********************************************************************************
*                       GENERAL UTILITY LATTICE PROGRAM                        *
*                                 Julian Gale                                  *
*                       Curtin Institute for Computation                       *
*                           Department of Chemistry                            *
*                    Curtin University, Western Australia                      *
********************************************************************************
* Version = 5.1.1 * Last modified =  25th August 2019                          *
********************************************************************************
*  optimise     - perform optimisation run                                     *
*  conp         - constant pressure calculation                                *
*  nosymmetry   - turn off symmetry after initial structure generation         *
*  full         - generate full unit cell when symmetry is removed             *
*  conjugate    - use conjugate gradients minimiser                            *
********************************************************************************
* ASE calculation                                                              *
********************************************************************************


  Job Started  at 16:29.20  3rd February   2020                               

  Number of CPUs =     1


  Total number of configurations input =      1

********************************************************************************
*  Input for Configuration =   1                                               *
********************************************************************************

  Formula = Sr3Ti3O9                                                    

  Number of irreducible atoms/shells =      15


  Total number atoms/shells =      15

  Dimensionality = 3               :  Bulk   



  Cartesian lattice vectors (Angstroms) :

       12.000000    0.000000    0.000000
        0.000000    4.000000    0.000000
        0.000000    0.000000    4.000000

  Cell parameters (Angstroms/Degrees):

  a =      12.0000    alpha =  90.0000
  b =       4.0000    beta  =  90.0000
  c =       4.0000    gamma =  90.0000

  Initial cell volume =         192.000000 Angs**3

  Temperature of configuration =  0.000     K 

  Pressure of configuration =         0.000 GPa 

  Fractional coordinates of asymmetric unit :

--------------------------------------------------------------------------------
   No.  Atomic       x           y          z         Charge      Occupancy
        Label      (Frac)      (Frac)     (Frac)        (e)         (Frac)  
--------------------------------------------------------------------------------
      1 Sr    c    0.999960    0.999870    0.000550     2.00000    1.000000    
      2 Ti    c    0.166670 *  0.500120 *  0.500000 *   4.00000    1.000000    
      3 O     c    0.999860 *  0.499900 *  0.500580 *  -2.00000    1.000000    
      4 O     c    0.166680 *  0.000170 *  0.499980 *  -2.00000    1.000000    
      5 O     c    0.166710 *  0.500200 *  0.999660 *  -2.00000    1.000000    
      6 Sr    c    0.333470 *  0.000350 *  0.000010 *   2.00000    1.000000    
      7 Ti    c    0.500270 *  0.499340 *  0.499380 *   4.00000    1.000000    
      8 O     c    0.333310 *  0.499790 *  0.499620 *  -2.00000    1.000000    
      9 O     c    0.499980 *  0.999440 *  0.500200 *  -2.00000    1.000000    
     10 O     c    0.500030 *  0.500400 *  0.000150 *  -2.00000    1.000000    
     11 Sr    c    0.666540 *  0.999940 *  0.999970 *   2.00000    1.000000    
     12 Ti    c    0.833350 *  0.499710 *  0.499670 *   4.00000    1.000000    
     13 O     c    0.666530 *  0.499700 *  0.500090 *  -2.00000    1.000000    
     14 O     c    0.833150 *  0.000100 *  0.500050 *  -2.00000    1.000000    
     15 O     c    0.833380 *  0.500160 *  0.000120 *  -2.00000    1.000000    
--------------------------------------------------------------------------------



********************************************************************************
*  General input information                                                   *
********************************************************************************

  Species output for all configurations : 

--------------------------------------------------------------------------------
  Species    Type    Atomic    Atomic    Charge       Radii (Angs)     Library
                     Number     Mass       (e)     Cova   Ionic  VDW   Symbol
--------------------------------------------------------------------------------
    Sr       Core       38      87.62   2.000000   1.120  0.000  1.670          
    Ti       Core       22      47.88   4.000000   1.470  0.000  2.190          
    O        Core        8      16.00  -2.000000   0.730  0.000  1.360          
--------------------------------------------------------------------------------


  Lattice summation method               =    Ewald          (3-D)
                                         =    Parry          (2-D)
                                         =    Saunders et al (1-D)
  Accuracy factor for lattice sums       =   12.000


  Time limit = Infinity

  Maximum range for interatomic potentials =    100000.000000 Angstroms

  General interatomic potentials :

--------------------------------------------------------------------------------
Atom  Types   Potential      Parameter       Value         Units   Cutoffs(Ang)
  1     2                                                            Min /  Max 
--------------------------------------------------------------------------------
O    c Sr   c Buckingham    Buckingham A     1952.3900    eV        0.000 10.000
                            Buckingham rho  0.33685000    Ang       
                            Buckingham C     19.220000    eV*Ang^6  
--------------------------------------------------------------------------------
O    c Ti   c Buckingham    Buckingham A     4590.7279    eV        0.000 10.000
                            Buckingham rho  0.26100000    Ang       
                            Buckingham C     0.0000000    eV*Ang^6  
--------------------------------------------------------------------------------
O    c O    c Buckingham    Buckingham A     1388.7700    eV        0.000 10.000
                            Buckingham rho  0.36262000    Ang       
                            Buckingham C     175.00000    eV*Ang^6  
--------------------------------------------------------------------------------
 Calling ------OPTIONS------

********************************************************************************
*  Output for configuration   1                                                *
********************************************************************************


  Components of energy : 

--------------------------------------------------------------------------------
  Interatomic potentials     =          59.32156790 eV    
  Monopole - monopole (real) =        -234.57439053 eV    
  Monopole - monopole (recip)=        -300.12335562 eV    
  Monopole - monopole (total)=        -534.69774615 eV    
--------------------------------------------------------------------------------
  Total lattice energy       =        -475.37617825 eV    
--------------------------------------------------------------------------------
  Total lattice energy       =          -45866.5344 kJ/(mole unit cells)
--------------------------------------------------------------------------------


  Number of variables =       48

  Maximum number of calculations  =          1000
  Maximum Hessian update interval =            10
  Maximum step size               =   0.001000000
  Maximum parameter tolerance     =   0.000010000
  Maximum function  tolerance     =   0.000010000
  Maximum gradient  tolerance     =   0.001000000
  Maximum gradient  component     =   0.010000000

  Cell parameters to be optimised using strains

  Conjugate gradient optimiser to be used

  Lower half triangular hessian to be used

  Minimiser to switch to BFGS with exact hessian
  When gradient norm is less than     0.500000

  Switch max step size to       0.10000000 when gnorm is less than    10.000000

  Start of bulk optimisation :

  Cycle:      0 Energy:      -475.376178  Gnorm:      0.418174  CPU:    0.011
  ** Hessian calculated **
 Line minimisation2
 ALPHA BEFORE:    1.0000000000000000     
  ** Opt : line minimisation
left   ...       0.00000000    -475.37617825
centre ...       0.10000000    -475.41342006
right  ...       0.20000000    -475.44674396

left   ...       0.00000000    -475.37617825
centre ...       0.10000000    -475.41342006
right  ...       0.20000000    -475.44674396
new    ...       0.30000000    -475.47610609

__s__    ...       0.10000000

left   ...       0.10000000    -475.41342006
centre ...       0.20000000    -475.44674396
right  ...       0.30000000    -475.47610609
new    ...       0.40000000    -475.50146215

__s__    ...       0.10000000

left   ...       0.20000000    -475.44674396
centre ...       0.30000000    -475.47610609
right  ...       0.40000000    -475.50146215
new    ...       0.50000000    -475.52276742

__s__    ...       0.10000000

 ALPHA AFTER:   0.50000000000000000     
  Cycle:      1 Energy:      -475.522767  Gnorm:      0.204421  CPU:    0.024
 Line minimisation2
 ALPHA BEFORE:    1.0457332176347998     
  ** Opt : line minimisation
left   ...       0.00000000    -475.52276742
centre ...       0.10000000    -475.53151117
right  ...       0.20000000    -475.53931339

left   ...       0.00000000    -475.52276742
centre ...       0.10000000    -475.53151117
right  ...       0.20000000    -475.53931339
new    ...       0.30000000    -475.54616909

__s__    ...       0.10000000

left   ...       0.10000000    -475.53151117
centre ...       0.20000000    -475.53931339
right  ...       0.30000000    -475.54616909
new    ...       0.40000000    -475.55207328

__s__    ...       0.10000000

left   ...       0.20000000    -475.53931339
centre ...       0.30000000    -475.54616909
right  ...       0.40000000    -475.55207328
new    ...       0.50000000    -475.55702094

__s__    ...       0.10000000

 ALPHA AFTER:   0.50000000000000000     
  Cycle:      2 Energy:      -475.557021  Gnorm:      0.098870  CPU:    0.031
 Line minimisation2
 ALPHA BEFORE:    1.0675712976819720     
  ** Opt : line minimisation
left   ...       0.00000000    -475.55702094
centre ...       0.10000000    -475.55900784
right  ...       0.20000000    -475.56078333

left   ...       0.00000000    -475.55702094
centre ...       0.10000000    -475.55900784
right  ...       0.20000000    -475.56078333
new    ...       0.30000000    -475.56234689

__s__    ...       0.10000000

left   ...       0.10000000    -475.55900784
centre ...       0.20000000    -475.56078333
right  ...       0.30000000    -475.56234689
new    ...       0.40000000    -475.56369801

__s__    ...       0.10000000

left   ...       0.20000000    -475.56078333
centre ...       0.30000000    -475.56234689
right  ...       0.40000000    -475.56369801
new    ...       0.50000000    -475.56483615

__s__    ...       0.10000000

 ALPHA AFTER:   0.50000000000000000     
  Cycle:      3 Energy:      -475.564836  Gnorm:      0.048683  CPU:    0.036
 Line minimisation2
 ALPHA BEFORE:    1.0309076343343351     
  ** Opt : line minimisation
left   ...       0.00000000    -475.56483615
centre ...       0.10000000    -475.56531121
right  ...       0.20000000    -475.56573602

left   ...       0.00000000    -475.56483615
centre ...       0.10000000    -475.56531121
right  ...       0.20000000    -475.56573602
new    ...       0.30000000    -475.56611051

__s__    ...       0.10000000

left   ...       0.10000000    -475.56531121
centre ...       0.20000000    -475.56573602
right  ...       0.30000000    -475.56611051
new    ...       0.40000000    -475.56643462

__s__    ...       0.10000000

left   ...       0.20000000    -475.56573602
centre ...       0.30000000    -475.56611051
right  ...       0.40000000    -475.56643462
new    ...       0.50000000    -475.56670829

__s__    ...       0.10000000

 ALPHA AFTER:   0.50000000000000000     
  Cycle:      4 Energy:      -475.566708  Gnorm:      0.024167  CPU:    0.040
 Line minimisation2
 ALPHA BEFORE:    1.0143972379444852     
  ** Opt : line minimisation
left   ...       0.00000000    -475.56670829
centre ...       0.10000000    -475.56682460
right  ...       0.20000000    -475.56692863

left   ...       0.00000000    -475.56670829
centre ...       0.10000000    -475.56682460
right  ...       0.20000000    -475.56692863
new    ...       0.30000000    -475.56702038

__s__    ...       0.10000000

left   ...       0.10000000    -475.56682460
centre ...       0.20000000    -475.56692863
right  ...       0.30000000    -475.56702038
new    ...       0.40000000    -475.56709985

__s__    ...       0.10000000

left   ...       0.20000000    -475.56692863
centre ...       0.30000000    -475.56702038
right  ...       0.40000000    -475.56709985
new    ...       0.50000000    -475.56716703

__s__    ...       0.10000000

 ALPHA AFTER:   0.50000000000000000     
  Cycle:      5 Energy:      -475.567167  Gnorm:      0.012041  CPU:    0.044
 Line minimisation2
 ALPHA BEFORE:    1.0069705711486781     
  ** Opt : line minimisation
left   ...       0.00000000    -475.56716703
centre ...       0.10000000    -475.56719581
right  ...       0.20000000    -475.56722156

left   ...       0.00000000    -475.56716703
centre ...       0.10000000    -475.56719581
right  ...       0.20000000    -475.56722156
new    ...       0.30000000    -475.56724427

__s__    ...       0.10000000

left   ...       0.10000000    -475.56719581
centre ...       0.20000000    -475.56722156
right  ...       0.30000000    -475.56724427
new    ...       0.40000000    -475.56726395

__s__    ...       0.10000000

left   ...       0.20000000    -475.56722156
centre ...       0.30000000    -475.56724427
right  ...       0.40000000    -475.56726395
new    ...       0.50000000    -475.56728060

__s__    ...       0.10000000

 ALPHA AFTER:   0.50000000000000000     
  Cycle:      6 Energy:      -475.567281  Gnorm:      0.006010  CPU:    0.048
 Line minimisation2
 ALPHA BEFORE:    1.0034304269691392     
  ** Opt : line minimisation
left   ...       0.00000000    -475.56728060
centre ...       0.10000000    -475.56728776
right  ...       0.20000000    -475.56729416

left   ...       0.00000000    -475.56728060
centre ...       0.10000000    -475.56728776
right  ...       0.20000000    -475.56729416
new    ...       0.30000000    -475.56729981

__s__    ...       0.10000000

left   ...       0.10000000    -475.56728776
centre ...       0.20000000    -475.56729416
right  ...       0.30000000    -475.56729981
new    ...       0.40000000    -475.56730471

__s__    ...       0.10000000

left   ...       0.20000000    -475.56729416
centre ...       0.30000000    -475.56729981
right  ...       0.40000000    -475.56730471
new    ...       0.50000000    -475.56730885

__s__    ...       0.10000000

 ALPHA AFTER:   0.50000000000000000     
  Cycle:      7 Energy:      -475.567309  Gnorm:      0.003003  CPU:    0.052
 Line minimisation2
 ALPHA BEFORE:    1.0017031856791025     
  ** Opt : line minimisation
left   ...       0.00000000    -475.56730885
centre ...       0.10000000    -475.56731064
right  ...       0.20000000    -475.56731224

left   ...       0.00000000    -475.56730885
centre ...       0.10000000    -475.56731064
right  ...       0.20000000    -475.56731224
new    ...       0.30000000    -475.56731365

__s__    ...       0.10000000

left   ...       0.10000000    -475.56731064
centre ...       0.20000000    -475.56731224
right  ...       0.30000000    -475.56731365
new    ...       0.40000000    -475.56731487

__s__    ...       0.10000000

left   ...       0.20000000    -475.56731224
centre ...       0.30000000    -475.56731365
right  ...       0.40000000    -475.56731487
new    ...       0.50000000    -475.56731590

__s__    ...       0.10000000

 ALPHA AFTER:   0.50000000000000000     
  Cycle:      8 Energy:      -475.567316  Gnorm:      0.001501  CPU:    0.056
 Line minimisation2
 ALPHA BEFORE:    1.0008480004329834     
  ** Opt : line minimisation
left   ...       0.00000000    -475.56731590
centre ...       0.10000000    -475.56731635
right  ...       0.20000000    -475.56731674

left   ...       0.00000000    -475.56731590
centre ...       0.10000000    -475.56731635
right  ...       0.20000000    -475.56731674
new    ...       0.30000000    -475.56731710

__s__    ...       0.10000000

 ALPHA AFTER:   0.30000000000000004     
  Cycle:      9 Energy:      -475.567317  Gnorm:      0.001050  CPU:    0.059
 Line minimisation2
 ALPHA BEFORE:   0.42868371770837216     
  ** Opt : line minimisation
left   ...       0.00000000    -475.56731710
centre ...       0.10000000    -475.56731731
right  ...       0.20000000    -475.56731751

left   ...       0.00000000    -475.56731710
centre ...       0.10000000    -475.56731731
right  ...       0.20000000    -475.56731751
new    ...       0.30000000    -475.56731768

__s__    ...       0.10000000

 ALPHA AFTER:   0.30000000000000004     
  Cycle:     10 Energy:      -475.567318  Gnorm:      0.000735  CPU:    0.062
  ** Hessian calculated **
 Line minimisation2
 ALPHA BEFORE:    1.0000000000000000     
  ** Opt : line minimisation
left   ...       0.00000000    -475.56731768
centre ...       0.10000000    -475.56731779
right  ...       0.20000000    -475.56731789

left   ...       0.00000000    -475.56731768
centre ...       0.10000000    -475.56731779
right  ...       0.20000000    -475.56731789
new    ...       0.30000000    -475.56731797

__s__    ...       0.10000000

 ALPHA AFTER:   0.30000000000000004     
  Cycle:     11 Energy:      -475.567318  Gnorm:      0.000512  CPU:    0.066
 Line minimisation2
 ALPHA BEFORE:   0.43518891897904854     
  ** Opt : line minimisation
left   ...       0.00000000    -475.56731797
centre ...       0.10000000    -475.56731802
right  ...       0.20000000    -475.56731807

left   ...       0.00000000    -475.56731797
centre ...       0.10000000    -475.56731802
right  ...       0.20000000    -475.56731807
new    ...       0.30000000    -475.56731811

__s__    ...       0.10000000

 ALPHA AFTER:   0.30000000000000004     


  **** Optimisation achieved ****


  Final energy =    -475.56731811 eV
  Final Gnorm  =       0.00035861

  Components of energy : 

--------------------------------------------------------------------------------
  Interatomic potentials     =          65.00501685 eV    
  Monopole - monopole (real) =        -237.15141919 eV    
  Monopole - monopole (recip)=        -303.42091577 eV    
  Monopole - monopole (total)=        -540.57233496 eV    
--------------------------------------------------------------------------------
  Total lattice energy       =        -475.56731811 eV    
--------------------------------------------------------------------------------
  Total lattice energy       =          -45884.9765 kJ/(mole unit cells)
--------------------------------------------------------------------------------

  Final fractional coordinates of atoms :

--------------------------------------------------------------------------------
   No.  Atomic        x           y          z          Radius
        Label       (Frac)      (Frac)     (Frac)       (Angs) 
--------------------------------------------------------------------------------
     1  Sr    c     0.999960    0.999870    0.000550    0.000000
     2  Ti    c     0.166627    0.499870    0.500549    0.000000
     3  O     c     0.999960    0.499870    0.500550    0.000000
     4  O     c     0.166627    0.999870    0.500550    0.000000
     5  O     c     0.166627    0.499870    0.000549    0.000000
     6  Sr    c     0.333293    0.999870    0.000550    0.000000
     7  Ti    c     0.499960    0.499869    0.500549    0.000000
     8  O     c     0.333293    0.499870    0.500549    0.000000
     9  O     c     0.499960    0.999870    0.500550    0.000000
    10  O     c     0.499960    0.499870    0.000549    0.000000
    11  Sr    c     0.666627    0.999870    0.000550    0.000000
    12  Ti    c     0.833293    0.499870    0.500549    0.000000
    13  O     c     0.666627    0.499870    0.500550    0.000000
    14  O     c     0.833293    0.999870    0.500550    0.000000
    15  O     c     0.833293    0.499870    0.000550    0.000000
--------------------------------------------------------------------------------

  Final Cartesian lattice vectors (Angstroms) :

       11.869590   -0.000000    0.000000
       -0.000000    3.956530    0.000000
        0.000000    0.000000    3.956530


  Final cell parameters and derivatives :

--------------------------------------------------------------------------------
       a           11.869590 Angstrom     dE/de1(xx)     0.009815 eV/strain
       b            3.956530 Angstrom     dE/de2(yy)     0.009821 eV/strain
       c            3.956530 Angstrom     dE/de3(zz)     0.009817 eV/strain
       alpha       90.000000 Degrees      dE/de4(yz)     0.000000 eV/strain
       beta        90.000000 Degrees      dE/de5(xz)     0.000000 eV/strain
       gamma       90.000000 Degrees      dE/de6(xy)    -0.000000 eV/strain
--------------------------------------------------------------------------------

  Primitive cell volume =           185.808082 Angs**3

  Density of cell =      4.919814 g/cm**3

  Non-primitive cell volume =           185.808082 Angs**3


  Final internal derivatives :

--------------------------------------------------------------------------------
   No.  Atomic          a             b             c           Radius
        Label          (eV)          (eV)          (eV)        (eV/Angs)
--------------------------------------------------------------------------------
      1 Sr    c       0.000000      0.000000      0.000000      0.000000
      2 Ti    c      -0.000886      0.000025     -0.000069      0.000000
      3 O     c      -0.000123     -0.000022      0.000205      0.000000
      4 O     c       0.000539      0.000044      0.000071      0.000000
      5 O     c       0.000566     -0.000004     -0.000138      0.000000
      6 Sr    c       0.000160      0.000070      0.000034      0.000000
      7 Ti    c       0.001951     -0.000329     -0.000252      0.000000
      8 O     c      -0.000206      0.000060     -0.000012      0.000000
      9 O     c      -0.000784     -0.000243      0.000121      0.000000
     10 O     c      -0.000718      0.000293      0.000010      0.000000
     11 Sr    c      -0.000155      0.000056      0.000052      0.000000
     12 Ti    c       0.000020     -0.000101     -0.000230      0.000000
     13 O     c      -0.000309      0.000071      0.000094      0.000000
     14 O     c      -0.000108      0.000026      0.000084      0.000000
     15 O     c       0.000283      0.000059     -0.000056      0.000000
--------------------------------------------------------------------------------
  Maximum abs         0.001951      0.000329      0.000252      0.000000
--------------------------------------------------------------------------------


  Time to end of optimisation =       0.0688 seconds

 Exiting ------OPTIONS------

  Peak dynamic memory used =       0.60 MB 


  Timing analysis for GULP :

--------------------------------------------------------------------------------
  Task / Subroutine                                          Time (Seconds)
--------------------------------------------------------------------------------
  Calculation of reciprocal space energy and derivatives          0.0077
  Calculation of real space energy and derivatives                0.0533
  Calculation of matrix inversion                                 0.0001
--------------------------------------------------------------------------------
  Total CPU time                                                  0.0688
--------------------------------------------------------------------------------


  Job Finished at 16:29.20  3rd February   2020                               

