********************************************************************************
*                       GENERAL UTILITY LATTICE PROGRAM                        *
*                                 Julian Gale                                  *
*                       Curtin Institute for Computation                       *
*                           Department of Chemistry                            *
*                    Curtin University, Western Australia                      *
********************************************************************************
* Version = 5.1.1 * Last modified =  25th August 2019                          *
********************************************************************************
*  optimise     - perform optimisation run                                     *
*  conp         - constant pressure calculation                                *
*  nosymmetry   - turn off symmetry after initial structure generation         *
*  full         - generate full unit cell when symmetry is removed             *
*  conjugate    - use conjugate gradients minimiser                            *
********************************************************************************
* ASE calculation                                                              *
********************************************************************************


  Job Started  at 13:26.39 21st February   2020                               

  Number of CPUs =     1


  Total number of configurations input =      1

********************************************************************************
*  Input for Configuration =   1                                               *
********************************************************************************

  Formula = O9Sr3Ti3                                                    

  Number of irreducible atoms/shells =      15


  Total number atoms/shells =      15

  Dimensionality = 3               :  Bulk   



  Cartesian lattice vectors (Angstroms) :

        4.000000    0.000000    0.000000
        0.000000    6.000000    0.000000
        0.000000    0.000000   10.000000

  Cell parameters (Angstroms/Degrees):

  a =       4.0000    alpha =  90.0000
  b =       6.0000    beta  =  90.0000
  c =      10.0000    gamma =  90.0000

  Initial cell volume =         240.000000 Angs**3

  Temperature of configuration =  0.000     K 

  Pressure of configuration =         0.000 GPa 

  Fractional coordinates of asymmetric unit :

--------------------------------------------------------------------------------
   No.  Atomic       x           y          z         Charge      Occupancy
        Label      (Frac)      (Frac)     (Frac)        (e)         (Frac)  
--------------------------------------------------------------------------------
      1 O     c    0.000000    0.333330    0.800000    -2.00000    1.000000    
      2 O     c    0.000000 *  0.000000 *  0.800000 *  -2.00000    1.000000    
      3 O     c    0.500000 *  0.666670 *  0.600000 *  -2.00000    1.000000    
      4 O     c    0.000000 *  0.666670 *  0.600000 *  -2.00000    1.000000    
      5 O     c    0.000000 *  0.333330 *  0.000000 *  -2.00000    1.000000    
      6 O     c    0.000000 *  0.666670 *  0.800000 *  -2.00000    1.000000    
      7 O     c    0.000000 *  0.000000 *  0.200000 *  -2.00000    1.000000    
      8 O     c    0.500000 *  0.333330 *  0.200000 *  -2.00000    1.000000    
      9 O     c    0.000000 *  0.000000 *  0.000000 *  -2.00000    1.000000    
     10 Sr    c    0.750000 *  0.166670 *  0.900000 *   2.00000    1.000000    
     11 Sr    c    0.250000 *  0.166670 *  0.900000 *   2.00000    1.000000    
     12 Sr    c    0.250000 *  0.166670 *  0.100000 *   2.00000    1.000000    
     13 Ti    c    0.750000 *  0.166670 *  0.700000 *   4.00000    1.000000    
     14 Ti    c    0.250000 *  0.166670 *  0.500000 *   4.00000    1.000000    
     15 Ti    c    0.250000 *  0.166670 *  0.700000 *   4.00000    1.000000    
--------------------------------------------------------------------------------



********************************************************************************
*  General input information                                                   *
********************************************************************************

  Species output for all configurations : 

--------------------------------------------------------------------------------
  Species    Type    Atomic    Atomic    Charge       Radii (Angs)     Library
                     Number     Mass       (e)     Cova   Ionic  VDW   Symbol
--------------------------------------------------------------------------------
    O        Core        8      16.00  -2.000000   0.730  0.000  1.360          
    Sr       Core       38      87.62   2.000000   1.120  0.000  1.670          
    Ti       Core       22      47.88   4.000000   1.470  0.000  2.190          
--------------------------------------------------------------------------------


  Lattice summation method               =    Ewald          (3-D)
                                         =    Parry          (2-D)
                                         =    Saunders et al (1-D)
  Accuracy factor for lattice sums       =   12.000


  Time limit = Infinity

  Maximum range for interatomic potentials =    100000.000000 Angstroms

  General interatomic potentials :

--------------------------------------------------------------------------------
Atom  Types   Potential      Parameter       Value         Units   Cutoffs(Ang)
  1     2                                                            Min /  Max 
--------------------------------------------------------------------------------
O    c Sr   c Buckingham    Buckingham A     1952.3900    eV        0.000 10.000
                            Buckingham rho  0.33685000    Ang       
                            Buckingham C     19.220000    eV*Ang^6  
--------------------------------------------------------------------------------
O    c Ti   c Buckingham    Buckingham A     4590.7279    eV        0.000 10.000
                            Buckingham rho  0.26100000    Ang       
                            Buckingham C     0.0000000    eV*Ang^6  
--------------------------------------------------------------------------------
O    c O    c Buckingham    Buckingham A     1388.7700    eV        0.000 10.000
                            Buckingham rho  0.36262000    Ang       
                            Buckingham C     175.00000    eV*Ang^6  
--------------------------------------------------------------------------------
 Calling ------OPTIONS------

********************************************************************************
*  Output for configuration   1                                                *
********************************************************************************


  Components of energy : 

--------------------------------------------------------------------------------
  Interatomic potentials     =         184.55920138 eV    
  Monopole - monopole (real) =          -3.58671899 eV    
  Monopole - monopole (recip)=        -195.13406381 eV    
  Monopole - monopole (total)=        -198.72078279 eV    
--------------------------------------------------------------------------------
  Total lattice energy       =         -14.16158142 eV    
--------------------------------------------------------------------------------
  Total lattice energy       =           -1366.3761 kJ/(mole unit cells)
--------------------------------------------------------------------------------


  Number of variables =       48

  Maximum number of calculations  =          1000
  Maximum Hessian update interval =            10
  Maximum step size               =   1.000000000
  Maximum parameter tolerance     =   0.000010000
  Maximum function  tolerance     =   0.000010000
  Maximum gradient  tolerance     =   0.001000000
  Maximum gradient  component     =   0.010000000

  Cell parameters to be optimised using strains

  Conjugate gradient optimiser to be used

  Lower half triangular hessian to be used

  Minimiser to switch to BFGS with exact hessian
  When gradient norm is less than     0.100000

  Start of bulk optimisation :

  Cycle:      0 Energy:       -14.161581  Gnorm:     35.512526  CPU:    0.013
 Perform trimming
 ALPHA BEFORE:    1.0000000000000000     
 XC BEFORE:    0.0000000000000000     
  ** Opt : line minimisation
left   ...       0.00000000     -14.16158142
centre ...       0.25000000     -98.43534940
right  ...       0.50000000    -153.15380047

left   ...       0.00000000     -14.16158142
centre ...       0.25000000     -98.43534940
right  ...       0.50000000    -153.15380047
new    ...       0.83784778    -201.61286615

__s__    ...       0.33784778

left   ...       0.25000000     -98.43534940
centre ...       0.50000000    -153.15380047
right  ...       0.83784778    -201.61286615
new    ...       1.22776949    -223.12598260

__s__    ...       0.38992171

left   ...       0.50000000    -153.15380047
centre ...       0.83784778    -201.61286615
right  ...       1.22776949    -223.12598260
new    ...       1.26027514    -222.49824472

__s__    ...       0.03250565

left   ...       0.83784778    -201.61286615
centre ...       1.22776949    -223.12598260
right  ...       1.26027514    -222.49824472
new    ...       1.18926083    -223.33687542

__s__    ...      -0.07101431

left   ...       0.83784778    -201.61286615
centre ...       1.18926083    -223.33687542
right  ...       1.22776949    -223.12598260
new    ...       1.19264926    -223.34143131

__s__    ...       0.00338843

 ALPHA AFTER:    1.1926492624666976     
 XC AFTER:    6.4807103518356912E-004
 SANITY CHECK:    1.1926492624666976     
 DIRECTION dim            1  value    5.4338778011164476E-004
 DIRECTION dim            2  value    6.7724055639842955E-003
 DIRECTION dim            3  value   -9.3878607970231703E-002
 DIRECTION dim            4  value   -7.7560731471629902E-004
 DIRECTION dim            5  value    2.5078038636520886E-005
 DIRECTION dim            6  value   -9.5476363559937327E-003
 DIRECTION dim            7  value    7.7560731471629869E-004
 DIRECTION dim            8  value   -2.5292025282159285E-005
 DIRECTION dim            9  value   -3.1181022257952766E-002
 DIRECTION dim           10  value   -5.7275449923033803E-003
 DIRECTION dim           11  value    3.2896444826765868E-002
 DIRECTION dim           12  value    6.3321122618242185E-003
 DIRECTION dim           13  value    1.8517125257813924E-004
 DIRECTION dim           14  value   -2.6835739771005907E-005
 DIRECTION dim           15  value   -9.0491500226784106E-005
 DIRECTION dim           16  value   -5.3689823769242423E-003
 DIRECTION dim           17  value   -9.9723159200939739E-003
 DIRECTION dim           18  value    5.8003908654003455E-002
 DIRECTION dim           19  value    5.3698558226651779E-003
 DIRECTION dim           20  value    8.8085020491927221E-003
 DIRECTION dim           21  value    3.8203635348996075E-002
 DIRECTION dim           22  value   -5.7266602543329260E-003
 DIRECTION dim           23  value   -3.1728651291542370E-002
 DIRECTION dim           24  value   -8.7949602290413667E-003
 DIRECTION dim           25  value   -2.2727950924453677E-002
 DIRECTION dim           26  value   -1.8046698885694161E-006
 DIRECTION dim           27  value    6.9732041735660902E-002
 DIRECTION dim           28  value    2.2727950924453667E-002
 DIRECTION dim           29  value   -1.8046698885680714E-006
 DIRECTION dim           30  value    6.1503611092305101E-002
 DIRECTION dim           31  value    1.1145542802030199E-002
 DIRECTION dim           32  value   -1.8046698885801480E-006
 DIRECTION dim           33  value    2.2712545254053303E-002
 DIRECTION dim           34  value    3.9990738394522175E-003
 DIRECTION dim           35  value   -1.0562211986806113E-006
 DIRECTION dim           36  value    3.5379574003281705E-002
 DIRECTION dim           37  value   -9.6417314265995224E-004
 DIRECTION dim           38  value   -1.4501745013836407E-007
 DIRECTION dim           39  value  -0.12441484908058112     
 DIRECTION dim           40  value   -3.9990738394522158E-003
 DIRECTION dim           41  value   -1.0562211986799586E-006
 DIRECTION dim           42  value    6.9764736315198861E-002
 DIRECTION dim           43  value    7.7190174055225505E-002
 DIRECTION dim           44  value   -1.5675670698515522E-002
 DIRECTION dim           45  value    5.3239205532630590E-002
 DIRECTION dim           46  value   -3.8767272875376706E-004
 DIRECTION dim           47  value    3.2766261845364126E-003
 DIRECTION dim           48  value    2.7184522604056906E-003
  Cycle:      1 Energy:      -223.341431  Gnorm:     16.216605  CPU:    0.026
 Perform trimming
 ALPHA BEFORE:    1.1926492624666976     
 XC BEFORE:    6.4807103518356912E-004
  ** Opt : line minimisation
left   ...       0.00000000    -223.34143131
centre ...       0.29816232    -268.89893976
right  ...       0.59632463    -254.59452414

left   ...       0.00000000    -223.34143131
centre ...       0.29816232    -268.89893976
right  ...       0.59632463    -254.59452414
new    ...       0.37599555    -269.90205505

__s__    ...      -0.22032908

left   ...       0.29816232    -268.89893976
centre ...       0.37599555    -269.90205505
right  ...       0.59632463    -254.59452414
new    ...       0.36040665    -270.01551728

__s__    ...      -0.01558890

 ALPHA AFTER:   0.36040665427291618     
 XC AFTER:    8.9132927866521546E-003
 SANITY CHECK:   0.36040665427291613     
 DIRECTION dim            1  value    2.2933044252867171E-002
 DIRECTION dim            2  value    5.3680941827227935E-002
 DIRECTION dim            3  value    2.3429886829439112E-002
 DIRECTION dim            4  value    2.9766328489829244E-004
 DIRECTION dim            5  value   -6.3014646129166451E-003
 DIRECTION dim            6  value    1.7962883904719892E-002
 DIRECTION dim            7  value    3.1997944611517076E-004
 DIRECTION dim            8  value   -1.7714681189228851E-002
 DIRECTION dim            9  value   -6.4517500275525608E-002
 DIRECTION dim           10  value    4.0126620649600462E-003
 DIRECTION dim           11  value    4.7182558380984542E-002
 DIRECTION dim           12  value    4.0527989030266477E-002
 DIRECTION dim           13  value    1.0573858866713486E-003
 DIRECTION dim           14  value    2.5710477731090121E-002
 DIRECTION dim           15  value    7.9338955700967384E-002
 DIRECTION dim           16  value    7.8493363917838867E-003
 DIRECTION dim           17  value    2.2699837874046214E-002
 DIRECTION dim           18  value    6.2769513877522914E-003
 DIRECTION dim           19  value   -5.6685264177015826E-003
 DIRECTION dim           20  value   -1.9186258376451385E-002
 DIRECTION dim           21  value    2.2966614223175801E-002
 DIRECTION dim           22  value    6.3461357201630561E-003
 DIRECTION dim           23  value   -4.8697077805446166E-002
 DIRECTION dim           24  value   -2.2097056511534440E-002
 DIRECTION dim           25  value   -3.9542770454488646E-002
 DIRECTION dim           26  value    8.0824490362344063E-003
 DIRECTION dim           27  value    5.6697018447072152E-002
 DIRECTION dim           28  value    3.6550536218364661E-002
 DIRECTION dim           29  value    7.0031855655530431E-003
 DIRECTION dim           30  value    1.7684261413705396E-002
 DIRECTION dim           31  value   -5.5149655382612855E-003
 DIRECTION dim           32  value   -8.3207193737719586E-003
 DIRECTION dim           33  value    7.7147011461745907E-002
 DIRECTION dim           34  value   -1.5594105070613087E-002
 DIRECTION dim           35  value    7.2880215157112172E-003
 DIRECTION dim           36  value  -0.18478842140217969     
 DIRECTION dim           37  value   -4.4714541382977636E-004
 DIRECTION dim           38  value    1.0906685041130635E-003
 DIRECTION dim           39  value    4.7794341526139490E-002
 DIRECTION dim           40  value    1.0769084040036589E-002
 DIRECTION dim           41  value   -4.6176022247705631E-002
 DIRECTION dim           42  value  -0.14905675765684745     
 DIRECTION dim           43  value   0.14902774225051740     
 DIRECTION dim           44  value   -4.0332937554315405E-002
 DIRECTION dim           45  value    9.5726089497809100E-002
 DIRECTION dim           46  value    6.6661610927686759E-003
 DIRECTION dim           47  value   -3.9682927688742653E-004
 DIRECTION dim           48  value   -1.3186366002292928E-002
  Cycle:      2 Energy:      -270.015517  Gnorm:     13.397858  CPU:    0.032
 Perform trimming
 ALPHA BEFORE:   0.36040665427291618     
 XC BEFORE:    8.9132927866521546E-003
  ** Opt : line minimisation
left   ...       0.00000000    -270.01551728
centre ...       0.09010166    -292.62424266
right  ...       0.18020333    -304.75658874

left   ...       0.00000000    -270.01551728
centre ...       0.09010166    -292.62424266
right  ...       0.18020333    -304.75658874
new    ...       0.23949623    -308.48819437

__s__    ...       0.05929291

left   ...       0.09010166    -292.62424266
centre ...       0.18020333    -304.75658874
right  ...       0.23949623    -308.48819437
new    ...       0.27540057    -309.46312922

__s__    ...       0.03590434

left   ...       0.18020333    -304.75658874
centre ...       0.23949623    -308.48819437
right  ...       0.27540057    -309.46312922
new    ...       0.29356986    -309.62749519

__s__    ...       0.01816929

 ALPHA AFTER:   0.29356986221965864     
 XC AFTER:   -5.6131738776095423E-003
 SANITY CHECK:   0.29356986221965864     
 DIRECTION dim            1  value   -4.9482145593652646E-002
 DIRECTION dim            2  value   -7.3435321195930173E-002
 DIRECTION dim            3  value  -0.16253176325183766     
 DIRECTION dim            4  value    1.0558520937676054E-003
 DIRECTION dim            5  value   -8.4524373265018968E-003
 DIRECTION dim            6  value    3.3396079926675828E-002
 DIRECTION dim            7  value    1.8847574671937194E-003
 DIRECTION dim            8  value   -2.8246019768345298E-002
 DIRECTION dim            9  value  -0.11573613788510854     
 DIRECTION dim           10  value    1.4487007193864549E-002
 DIRECTION dim           11  value    5.1565165964877438E-002
 DIRECTION dim           12  value   0.13515621394276844     
 DIRECTION dim           13  value    4.4746364519488132E-003
 DIRECTION dim           14  value    5.6245096248406463E-002
 DIRECTION dim           15  value    1.5068499577361632E-003
 DIRECTION dim           16  value    1.8605348057206362E-002
 DIRECTION dim           17  value    4.4110864945577130E-002
 DIRECTION dim           18  value   0.10723454862611766     
 DIRECTION dim           19  value   -7.6638557887920298E-003
 DIRECTION dim           20  value   -3.0293833553858854E-002
 DIRECTION dim           21  value   0.13966902543667525     
 DIRECTION dim           22  value    9.6399627825430271E-003
 DIRECTION dim           23  value   -3.1923041204335707E-002
 DIRECTION dim           24  value    3.1622605980372004E-002
 DIRECTION dim           25  value   -3.2219807959876397E-002
 DIRECTION dim           26  value    7.6399460924985218E-003
 DIRECTION dim           27  value    4.5814138706424617E-002
 DIRECTION dim           28  value    3.1372050870762884E-002
 DIRECTION dim           29  value    1.8116748014977202E-002
 DIRECTION dim           30  value   -5.6504823399888056E-002
 DIRECTION dim           31  value   -2.7154698846235240E-002
 DIRECTION dim           32  value   -2.0722124540026983E-002
 DIRECTION dim           33  value   -3.5873349344485841E-002
 DIRECTION dim           34  value   -3.0942756675250975E-002
 DIRECTION dim           35  value    8.5818599453101135E-002
 DIRECTION dim           36  value  -0.12853583373976826     
 DIRECTION dim           37  value   -6.5592252884856383E-003
 DIRECTION dim           38  value    1.6731181312325859E-003
 DIRECTION dim           39  value   -4.0714292421691133E-002
 DIRECTION dim           40  value    9.2562613865278462E-002
 DIRECTION dim           41  value    6.1648779546308603E-002
 DIRECTION dim           42  value   0.16205158667754441     
 DIRECTION dim           43  value   0.25943240001260576     
 DIRECTION dim           44  value  -0.10155959682543109     
 DIRECTION dim           45  value   0.17651077627743281     
 DIRECTION dim           46  value    2.0461295995317014E-002
 DIRECTION dim           47  value    8.0116169193398812E-003
 DIRECTION dim           48  value   -2.1046562562205239E-003
  Cycle:      3 Energy:      -309.627495  Gnorm:      9.496608  CPU:    0.037
 ALPHA BEFORE:   0.29356986221965864     
 XC BEFORE:   -5.6131738776095423E-003
  ** Opt : line minimisation
left   ...       0.00000000    -309.62749519
centre ...       0.07339247    -323.31438798
right  ...       0.14678493    -333.77212026

left   ...       0.00000000    -309.62749519
centre ...       0.07339247    -323.31438798
right  ...       0.14678493    -333.77212026
new    ...       0.34777238    -345.29791580

__s__    ...       0.20098745

left   ...       0.07339247    -323.31438798
centre ...       0.14678493    -333.77212026
right  ...       0.34777238    -345.29791580
new    ...       0.33967753    -345.29123974

__s__    ...      -0.00809485

 ALPHA AFTER:   0.34777237902988162     
 XC AFTER:   -6.9700349880767974E-003
 SANITY CHECK:   0.34777237902988156     
 DIRECTION dim            1  value   -3.9015781364013097E-003
 DIRECTION dim            2  value    6.0618963068097206E-002
 DIRECTION dim            3  value   -2.6216958221765216E-002
 DIRECTION dim            4  value    8.3008647034053910E-003
 DIRECTION dim            5  value   -3.2854526810257335E-002
 DIRECTION dim            6  value   0.10925060725318021     
 DIRECTION dim            7  value    2.7898044770817178E-003
 DIRECTION dim            8  value   -6.6495311122096640E-002
 DIRECTION dim            9  value  -0.14809255750815081     
 DIRECTION dim           10  value    2.5251004743113252E-002
 DIRECTION dim           11  value    2.6677665544804982E-002
 DIRECTION dim           12  value   0.11413181608080254     
 DIRECTION dim           13  value    1.8106924587032770E-002
 DIRECTION dim           14  value    9.2863539350622609E-002
 DIRECTION dim           15  value   -3.8196917084799137E-004
 DIRECTION dim           16  value    1.8048096074347621E-002
 DIRECTION dim           17  value    4.8472177621629163E-002
 DIRECTION dim           18  value    2.0904743318672959E-002
 DIRECTION dim           19  value   -2.7174395540708256E-002
 DIRECTION dim           20  value   -5.2289485674306711E-002
 DIRECTION dim           21  value    7.1729241977080943E-002
 DIRECTION dim           22  value    2.3444922810355311E-002
 DIRECTION dim           23  value    1.4220468917010693E-002
 DIRECTION dim           24  value    7.7687789105141292E-002
 DIRECTION dim           25  value    9.8722017594065278E-003
 DIRECTION dim           26  value    1.4312876552594125E-002
 DIRECTION dim           27  value    7.7264188476576748E-002
 DIRECTION dim           28  value   -4.4838775332247047E-003
 DIRECTION dim           29  value    3.6939937941182707E-002
 DIRECTION dim           30  value    3.5542181976425946E-003
 DIRECTION dim           31  value   -3.5316890405265908E-002
 DIRECTION dim           32  value   -2.9634094947700945E-002
 DIRECTION dim           33  value    4.9642178544879761E-002
 DIRECTION dim           34  value    4.0401861757492635E-002
 DIRECTION dim           35  value    9.3838484294429939E-002
 DIRECTION dim           36  value  -0.24612996188761704     
 DIRECTION dim           37  value   -5.8224713992667135E-003
 DIRECTION dim           38  value    1.6419164801448314E-002
 DIRECTION dim           39  value   0.12241952401922992     
 DIRECTION dim           40  value   -4.5793076539899835E-002
 DIRECTION dim           41  value    1.6425600604876647E-003
 DIRECTION dim           42  value   -9.0668007701421180E-002
 DIRECTION dim           43  value   0.21917202490695806     
 DIRECTION dim           44  value  -0.19449073772520473     
 DIRECTION dim           45  value   0.26584724407859500     
 DIRECTION dim           46  value    2.3628860430791737E-002
 DIRECTION dim           47  value   -8.7381512765935445E-003
 DIRECTION dim           48  value   -1.2745621247914233E-002
  Cycle:      4 Energy:      -345.297916  Gnorm:      9.880237  CPU:    0.041
 Perform trimming
 ALPHA BEFORE:   0.34777237902988162     
 XC BEFORE:   -6.9700349880767974E-003
  ** Opt : line minimisation
left   ...       0.00000000    -345.29791580
centre ...       0.08694309    -361.24193060
right  ...       0.17388619    -368.98152328

left   ...       0.00000000    -345.29791580
centre ...       0.08694309    -361.24193060
right  ...       0.17388619    -368.98152328
new    ...       0.21243189    -369.88052187

__s__    ...       0.03854570

left   ...       0.08694309    -361.24193060
centre ...       0.17388619    -368.98152328
right  ...       0.21243189    -369.88052187
new    ...       0.21543407    -369.89767595

__s__    ...       0.00300217

 ALPHA AFTER:   0.21543406541964863     
 XC AFTER:   -5.7561342013704806E-003
 SANITY CHECK:   0.21543406541964866     
 DIRECTION dim            1  value    5.6346742765204438E-003
 DIRECTION dim            2  value   0.16548276980214449     
 DIRECTION dim            3  value  -0.19521241407689066     
 DIRECTION dim            4  value    7.6825986033846310E-003
 DIRECTION dim            5  value   -7.3672094612428241E-002
 DIRECTION dim            6  value    5.6501486847829616E-002
 DIRECTION dim            7  value    9.8730886515995125E-003
 DIRECTION dim            8  value  -0.14032058061559685     
 DIRECTION dim            9  value  -0.12730022683021985     
 DIRECTION dim           10  value    3.6173170854829739E-002
 DIRECTION dim           11  value    4.6961320031302628E-002
 DIRECTION dim           12  value   0.15067905842138071     
 DIRECTION dim           13  value    5.2655126730197274E-002
 DIRECTION dim           14  value   0.18649112278800720     
 DIRECTION dim           15  value   -1.9604004172036067E-002
 DIRECTION dim           16  value    5.7838957795415147E-002
 DIRECTION dim           17  value    9.9558775635821717E-002
 DIRECTION dim           18  value   0.16217601360374276     
 DIRECTION dim           19  value   -6.3471458643471174E-002
 DIRECTION dim           20  value   -9.4351561069984005E-002
 DIRECTION dim           21  value   0.23002491135611502     
 DIRECTION dim           22  value    4.7053337736872460E-002
 DIRECTION dim           23  value    2.3176632846094166E-002
 DIRECTION dim           24  value   0.14726292109632622     
 DIRECTION dim           25  value    4.0443112021427953E-002
 DIRECTION dim           26  value    2.6703900712884050E-002
 DIRECTION dim           27  value   0.11186156378003551     
 DIRECTION dim           28  value   -4.0875364467839799E-002
 DIRECTION dim           29  value    6.6337927701497768E-002
 DIRECTION dim           30  value   -3.5539158638933956E-002
 DIRECTION dim           31  value   -5.2440874701363549E-002
 DIRECTION dim           32  value   -6.1034720886890756E-002
 DIRECTION dim           33  value   0.11509993443828999     
 DIRECTION dim           34  value   0.10601173117272797     
 DIRECTION dim           35  value   0.13981238380652550     
 DIRECTION dim           36  value  -0.17755817069400781     
 DIRECTION dim           37  value   -4.6347774037935260E-002
 DIRECTION dim           38  value    1.7320769413322876E-002
 DIRECTION dim           39  value  -0.10356853530015528     
 DIRECTION dim           40  value  -0.16431585331830567     
 DIRECTION dim           41  value   -2.0063209363904773E-002
 DIRECTION dim           42  value   -7.0407231550538088E-002
 DIRECTION dim           43  value   0.26244366770857486     
 DIRECTION dim           44  value  -0.34138719307047644     
 DIRECTION dim           45  value   0.38761316305150351     
 DIRECTION dim           46  value    3.7339306048638124E-002
 DIRECTION dim           47  value   -1.0796160490783415E-002
 DIRECTION dim           48  value   -2.4875130144195564E-002
  Cycle:      5 Energy:      -369.897676  Gnorm:      9.672900  CPU:    0.045
 ALPHA BEFORE:   0.21543406541964863     
 XC BEFORE:   -5.7561342013704806E-003
  ** Opt : line minimisation
left   ...       0.00000000    -369.89767595
centre ...       0.05385852    -380.79135646
right  ...       0.10771703    -389.26995222

left   ...       0.00000000    -369.89767595
centre ...       0.05385852    -380.79135646
right  ...       0.10771703    -389.26995222
new    ...       0.26986793    -389.81880608

__s__    ...       0.16215089

left   ...       0.05385852    -380.79135646
centre ...       0.10771703    -389.26995222
right  ...       0.26986793    -389.81880608
new    ...       0.19116577    -395.42242104

__s__    ...      -0.07870216

left   ...       0.10771703    -389.26995222
centre ...       0.19116577    -395.42242104
right  ...       0.26986793    -389.81880608
new    ...       0.19068602    -395.41790552

__s__    ...      -0.00047974

 ALPHA AFTER:   0.19116576653800693     
 XC AFTER:   -3.5450320868276992E-003
 SANITY CHECK:   0.19116576653800696     
 DIRECTION dim            1  value    1.1566412515094208E-002
 DIRECTION dim            2  value   0.22819772882171488     
 DIRECTION dim            3  value  -0.29566921458905115     
 DIRECTION dim            4  value   -9.3898429790775020E-003
 DIRECTION dim            5  value  -0.10038860669851411     
 DIRECTION dim            6  value   -1.8209115706891960E-002
 DIRECTION dim            7  value    1.0122744775159363E-002
 DIRECTION dim            8  value  -0.21907902750032737     
 DIRECTION dim            9  value   -5.7696679800199921E-002
 DIRECTION dim           10  value    3.5592730827164187E-002
 DIRECTION dim           11  value    7.2243721259889801E-002
 DIRECTION dim           12  value   0.20242569135671162     
 DIRECTION dim           13  value   0.10276224637191739     
 DIRECTION dim           14  value   0.27273334969369406     
 DIRECTION dim           15  value   -1.7994900753742191E-002
 DIRECTION dim           16  value  -0.11187464800517691     
 DIRECTION dim           17  value    5.6215951566554657E-002
 DIRECTION dim           18  value    1.7055792912315099E-002
 DIRECTION dim           19  value    9.4753252010057493E-002
 DIRECTION dim           20  value   -6.3836234241827827E-002
 DIRECTION dim           21  value   0.29862535374179089     
 DIRECTION dim           22  value    7.7902794343061257E-002
 DIRECTION dim           23  value    2.0708987460822663E-002
 DIRECTION dim           24  value   0.17291746750222417     
 DIRECTION dim           25  value    6.0500108483029190E-002
 DIRECTION dim           26  value    3.7779271360513761E-002
 DIRECTION dim           27  value    9.4824084966379646E-002
 DIRECTION dim           28  value   -8.3541864553848294E-002
 DIRECTION dim           29  value    7.8889990934117624E-002
 DIRECTION dim           30  value  -0.10259935329752917     
 DIRECTION dim           31  value   -5.9027873135130235E-002
 DIRECTION dim           32  value   -9.7189259171004266E-002
 DIRECTION dim           33  value    8.7799962305131901E-002
 DIRECTION dim           34  value   0.15054510436684410     
 DIRECTION dim           35  value   0.17097960808675108     
 DIRECTION dim           36  value  -0.14034907315348399     
 DIRECTION dim           37  value   -5.9444379188326776E-002
 DIRECTION dim           38  value    6.4895333678399170E-002
 DIRECTION dim           39  value   0.13763980552369404     
 DIRECTION dim           40  value  -0.26526096859429532     
 DIRECTION dim           41  value   -3.6968974035270122E-002
 DIRECTION dim           42  value   -5.6759607717509486E-002
 DIRECTION dim           43  value   0.31761557522431905     
 DIRECTION dim           44  value  -0.37689352828597233     
 DIRECTION dim           45  value   0.43463651853789709     
 DIRECTION dim           46  value    5.3410058978272015E-002
 DIRECTION dim           47  value    1.1473010094424654E-002
 DIRECTION dim           48  value   -7.6136547571578964E-004
  Cycle:      6 Energy:      -395.422421  Gnorm:      7.898619  CPU:    0.049
 ALPHA BEFORE:   0.19116576653800693     
 XC BEFORE:   -3.5450320868276992E-003
  ** Opt : line minimisation
left   ...       0.00000000    -395.42242104
centre ...       0.04779144    -400.74340067
right  ...       0.09558288    -402.41460224

left   ...       0.00000000    -395.42242104
centre ...       0.04779144    -400.74340067
right  ...       0.09558288    -402.41460224
new    ...       0.09357045    -402.41546365

__s__    ...      -0.00201244

 ALPHA AFTER:    9.3570447259821679E-002
 XC AFTER:    4.2555156839028047E-003
 SANITY CHECK:    9.3570447259821665E-002
 DIRECTION dim            1  value    8.3365506943344395E-002
 DIRECTION dim            2  value    8.6768103934454610E-002
 DIRECTION dim            3  value   -1.5369229334342469E-002
 DIRECTION dim            4  value   -3.3761245827179640E-002
 DIRECTION dim            5  value   -5.7515676855754913E-002
 DIRECTION dim            6  value   -4.5442253437550442E-002
 DIRECTION dim            7  value    2.4632105040075212E-002
 DIRECTION dim            8  value  -0.13962855811733360     
 DIRECTION dim            9  value    9.4401240690634547E-002
 DIRECTION dim           10  value   -9.5590035770890605E-003
 DIRECTION dim           11  value    7.0925336047254733E-002
 DIRECTION dim           12  value   0.11328509386947103     
 DIRECTION dim           13  value   0.11111182338493704     
 DIRECTION dim           14  value   0.16876527958038243     
 DIRECTION dim           15  value   -5.2994977701963708E-002
 DIRECTION dim           16  value   -7.1214533646764944E-002
 DIRECTION dim           17  value    3.0715038342953308E-002
 DIRECTION dim           18  value   -7.2192816078991574E-003
 DIRECTION dim           19  value    9.0784679233188309E-002
 DIRECTION dim           20  value   -3.1981142010966440E-002
 DIRECTION dim           21  value   0.19531649235560941     
 DIRECTION dim           22  value    6.2797216530686817E-002
 DIRECTION dim           23  value    3.6907592348968815E-003
 DIRECTION dim           24  value   -4.7325964717704172E-002
 DIRECTION dim           25  value    4.5414714202124368E-002
 DIRECTION dim           26  value    2.7752111154517943E-002
 DIRECTION dim           27  value    5.7732957264339593E-002
 DIRECTION dim           28  value   -7.5602757623682779E-002
 DIRECTION dim           29  value    3.7435970607121900E-002
 DIRECTION dim           30  value   -6.7554178729723607E-002
 DIRECTION dim           31  value   -1.6667755250603270E-002
 DIRECTION dim           32  value   -8.6568630692881371E-002
 DIRECTION dim           33  value    4.7600444539134409E-002
 DIRECTION dim           34  value   -2.3046591163400132E-002
 DIRECTION dim           35  value   0.13001056125213492     
 DIRECTION dim           36  value  -0.23942649313904726     
 DIRECTION dim           37  value   -6.3243227739419150E-002
 DIRECTION dim           38  value    4.6414764479904828E-002
 DIRECTION dim           39  value   0.13173345171343903     
 DIRECTION dim           40  value  -0.17443364979055079     
 DIRECTION dim           41  value   -3.2663816792881786E-002
 DIRECTION dim           42  value    7.6111869555011660E-002
 DIRECTION dim           43  value   0.12467422972697863     
 DIRECTION dim           44  value  -0.12340586749252751     
 DIRECTION dim           45  value   0.21000818390836506     
 DIRECTION dim           46  value    2.8099572302081165E-002
 DIRECTION dim           47  value    4.0870470261780013E-002
 DIRECTION dim           48  value   -2.5601816304100279E-002
  Cycle:      7 Energy:      -402.415464  Gnorm:      6.140776  CPU:    0.052
 ALPHA BEFORE:    9.3570447259821679E-002
 XC BEFORE:    4.2555156839028047E-003
  ** Opt : line minimisation
left   ...       0.00000000    -402.41546365
centre ...       0.02339261    -404.38839265
right  ...       0.04678522    -406.14432945

left   ...       0.00000000    -402.41546365
centre ...       0.02339261    -404.38839265
right  ...       0.04678522    -406.14432945
new    ...       0.22438581    -407.01911575

__s__    ...       0.17760058

left   ...       0.02339261    -404.38839265
centre ...       0.04678522    -406.14432945
right  ...       0.22438581    -407.01911575
new    ...       0.14264308    -410.27810992

__s__    ...      -0.08174273

left   ...       0.04678522    -406.14432945
centre ...       0.14264308    -410.27810992
right  ...       0.22438581    -407.01911575
new    ...       0.14085576    -410.26121407

__s__    ...      -0.00178732

 ALPHA AFTER:   0.14264307640420076     
 XC AFTER:    1.3372834907648051E-002
 SANITY CHECK:   0.14264307640420076     
 DIRECTION dim            1  value    6.3917011982480954E-002
 DIRECTION dim            2  value    4.9496552951975969E-002
 DIRECTION dim            3  value   -4.9621045799787204E-002
 DIRECTION dim            4  value   -4.6752678769599147E-002
 DIRECTION dim            5  value   -3.6864145914079896E-002
 DIRECTION dim            6  value   -3.3936165959314743E-002
 DIRECTION dim            7  value    6.3591367661495854E-002
 DIRECTION dim            8  value   -7.1375375690392290E-002
 DIRECTION dim            9  value    3.6080561716425069E-002
 DIRECTION dim           10  value   -3.1264755785191681E-002
 DIRECTION dim           11  value    7.0998898236471833E-002
 DIRECTION dim           12  value    8.5930231287745157E-002
 DIRECTION dim           13  value   0.12395219484854597     
 DIRECTION dim           14  value   0.11551366879469298     
 DIRECTION dim           15  value   -5.4477715211162757E-002
 DIRECTION dim           16  value   -3.3578523436199235E-002
 DIRECTION dim           17  value    2.9029921981611750E-002
 DIRECTION dim           18  value    4.5268027409621339E-002
 DIRECTION dim           19  value    3.9342492999418173E-002
 DIRECTION dim           20  value   -2.4005628971148638E-002
 DIRECTION dim           21  value    1.0541274914756246E-002
 DIRECTION dim           22  value    5.8798017558109129E-002
 DIRECTION dim           23  value    8.1099901343188101E-004
 DIRECTION dim           24  value  -0.12558367008002277     
 DIRECTION dim           25  value    4.2529796049000410E-002
 DIRECTION dim           26  value    2.3356061014427953E-002
 DIRECTION dim           27  value    3.3533763205651310E-002
 DIRECTION dim           28  value   -7.0651832300210660E-002
 DIRECTION dim           29  value    2.0077719898455092E-002
 DIRECTION dim           30  value   -5.3761569838077755E-002
 DIRECTION dim           31  value   -3.6889101655539986E-003
 DIRECTION dim           32  value   -8.5014757479262321E-002
 DIRECTION dim           33  value    6.9259249622469696E-003
 DIRECTION dim           34  value   -6.4495483710861418E-002
 DIRECTION dim           35  value    5.8938333263715711E-002
 DIRECTION dim           36  value    1.6857064829141344E-003
 DIRECTION dim           37  value   -4.6297540569646328E-002
 DIRECTION dim           38  value    2.5978663396712006E-002
 DIRECTION dim           39  value   0.20984186198799926     
 DIRECTION dim           40  value  -0.12147965142935266     
 DIRECTION dim           41  value   -4.7182565501718364E-002
 DIRECTION dim           42  value   -1.0766295815664850E-003
 DIRECTION dim           43  value    4.4707414036996011E-002
 DIRECTION dim           44  value   -5.1056153762390200E-003
 DIRECTION dim           45  value   0.11134702096011541     
 DIRECTION dim           46  value    1.7713308565801982E-002
 DIRECTION dim           47  value    3.4341670039124014E-002
 DIRECTION dim           48  value   -3.3166481363037466E-002
  Cycle:      8 Energy:      -410.278110  Gnorm:      5.288080  CPU:    0.057
 ALPHA BEFORE:   0.14264307640420076     
 XC BEFORE:    1.3372834907648051E-002
  ** Opt : line minimisation
left   ...       0.00000000    -410.27810992
centre ...       0.03566077    -412.59159535
right  ...       0.07132154    -414.49225607

left   ...       0.00000000    -410.27810992
centre ...       0.03566077    -412.59159535
right  ...       0.07132154    -414.49225607
new    ...       0.21767469    -418.06261055

__s__    ...       0.14635315

left   ...       0.03566077    -412.59159535
centre ...       0.07132154    -414.49225607
right  ...       0.21767469    -418.06261055
new    ...       0.22131250    -418.06576180

__s__    ...       0.00363781

 ALPHA AFTER:   0.22131250039296518     
 XC AFTER:    2.0802525105432533E-002
 SANITY CHECK:   0.22131250039296518     
 DIRECTION dim            1  value    3.3571037264466461E-002
 DIRECTION dim            2  value    2.4107188601645981E-002
 DIRECTION dim            3  value    8.1270478896396867E-002
 DIRECTION dim            4  value   -5.3237479962150940E-002
 DIRECTION dim            5  value   -2.9048919556444043E-002
 DIRECTION dim            6  value   -4.3623428506346325E-002
 DIRECTION dim            7  value    8.0232444731895891E-002
 DIRECTION dim            8  value   -2.4664113124690308E-002
 DIRECTION dim            9  value    7.4829283890410950E-002
 DIRECTION dim           10  value   -3.8541438363986325E-002
 DIRECTION dim           11  value    6.7959534000569394E-002
 DIRECTION dim           12  value    2.8536478721630412E-002
 DIRECTION dim           13  value   0.13163206241823713     
 DIRECTION dim           14  value    7.3106658989748760E-002
 DIRECTION dim           15  value   -6.9590288653700511E-002
 DIRECTION dim           16  value   -6.6399783914191050E-003
 DIRECTION dim           17  value    2.8815552860624045E-002
 DIRECTION dim           18  value   0.13132282732197820     
 DIRECTION dim           19  value   -9.1146259705612229E-003
 DIRECTION dim           20  value   -2.1659943746229354E-002
 DIRECTION dim           21  value   -2.6080518925806710E-002
 DIRECTION dim           22  value    5.5146690728198992E-002
 DIRECTION dim           23  value    4.8856491940418890E-003
 DIRECTION dim           24  value  -0.12860674985542045     
 DIRECTION dim           25  value    4.8862250038096702E-002
 DIRECTION dim           26  value    2.0064702575623219E-002
 DIRECTION dim           27  value    3.7271977345408921E-002
 DIRECTION dim           28  value   -6.6480296835206565E-002
 DIRECTION dim           29  value    1.2812959031987370E-002
 DIRECTION dim           30  value   -2.0144769864092870E-002
 DIRECTION dim           31  value   -1.0662493446304442E-002
 DIRECTION dim           32  value   -8.1840670863076448E-002
 DIRECTION dim           33  value    1.3988330795477351E-002
 DIRECTION dim           34  value   -6.5981482097200839E-002
 DIRECTION dim           35  value    2.9218412677114045E-002
 DIRECTION dim           36  value   -3.3066523515165773E-003
 DIRECTION dim           37  value   -1.3697889948393275E-002
 DIRECTION dim           38  value    5.7758275827579763E-003
 DIRECTION dim           39  value    1.6674984618444536E-002
 DIRECTION dim           40  value   -8.2923998207168143E-002
 DIRECTION dim           41  value   -5.4100780560781145E-002
 DIRECTION dim           42  value   -5.4216414670484603E-002
 DIRECTION dim           43  value    2.2621708651163690E-002
 DIRECTION dim           44  value    5.2457987575543978E-002
 DIRECTION dim           45  value    7.5314602224507546E-002
 DIRECTION dim           46  value    6.2130017132208835E-003
 DIRECTION dim           47  value    2.2740352680907228E-002
 DIRECTION dim           48  value   -3.8590130487071425E-002
  Cycle:      9 Energy:      -418.065762  Gnorm:      6.028520  CPU:    0.061
 ALPHA BEFORE:   0.22131250039296518     
 XC BEFORE:    2.0802525105432533E-002
  ** Opt : line minimisation
left   ...       0.00000000    -418.06576180
centre ...       0.05532813    -420.69026520
right  ...       0.11065625    -419.44105189

left   ...       0.00000000    -418.06576180
centre ...       0.05532813    -420.69026520
right  ...       0.11065625    -419.44105189
new    ...       0.06514973    -420.74163242

__s__    ...      -0.04550652

left   ...       0.05532813    -420.69026520
centre ...       0.06514973    -420.74163242
right  ...       0.11065625    -419.44105189
new    ...       0.06451823    -420.74195903

__s__    ...      -0.00063150

 ALPHA AFTER:    6.4518228725113300E-002
 XC AFTER:    2.0629525570675850E-002
 SANITY CHECK:    6.4518228725112273E-002
 DIRECTION dim            1  value   -2.6814055217443881E-003
 DIRECTION dim            2  value    2.4827969910146000E-003
 DIRECTION dim            3  value    4.2232010048439114E-002
 DIRECTION dim            4  value   -1.5467775083561583E-002
 DIRECTION dim            5  value   -8.6100104692606420E-003
 DIRECTION dim            6  value   -5.6536307124093160E-002
 DIRECTION dim            7  value    1.0924887772966999E-002
 DIRECTION dim            8  value    2.1812372025868276E-002
 DIRECTION dim            9  value   -2.4988618181421871E-002
 DIRECTION dim           10  value   -6.4795800667455106E-003
 DIRECTION dim           11  value    9.9169181840980426E-003
 DIRECTION dim           12  value   -3.5697199671069248E-003
 DIRECTION dim           13  value    4.7130711698287329E-002
 DIRECTION dim           14  value   -2.4420343370091108E-002
 DIRECTION dim           15  value    1.3108073872669353E-002
 DIRECTION dim           16  value   -2.2879668996539645E-002
 DIRECTION dim           17  value    1.5758248149870513E-003
 DIRECTION dim           18  value   -7.3450960282764710E-002
 DIRECTION dim           19  value   -4.5403772180914695E-002
 DIRECTION dim           20  value   -8.7120352534933530E-003
 DIRECTION dim           21  value   -8.2365010988195902E-002
 DIRECTION dim           22  value    5.6255784130052437E-003
 DIRECTION dim           23  value    5.1287571879768123E-003
 DIRECTION dim           24  value    8.7278768146743305E-002
 DIRECTION dim           25  value    2.6107610327063612E-002
 DIRECTION dim           26  value    1.9460186567852441E-003
 DIRECTION dim           27  value   -4.5892249322825172E-002
 DIRECTION dim           28  value   -1.6127560725917936E-002
 DIRECTION dim           29  value    3.0545830850359315E-003
 DIRECTION dim           30  value   -5.0944428233889234E-002
 DIRECTION dim           31  value   -1.7615351055080917E-002
 DIRECTION dim           32  value   -1.8384185615107042E-002
 DIRECTION dim           33  value   -2.4674796383468201E-003
 DIRECTION dim           34  value    4.8276812127800002E-002
 DIRECTION dim           35  value   -2.1441194757940004E-003
 DIRECTION dim           36  value   0.13492047728465320     
 DIRECTION dim           37  value    1.9872613109095567E-002
 DIRECTION dim           38  value   -9.0616503763444080E-003
 DIRECTION dim           39  value   0.13971215595867145     
 DIRECTION dim           40  value   -2.2395357664030034E-002
 DIRECTION dim           41  value    1.6872367831237037E-002
 DIRECTION dim           42  value   -4.4127071932461438E-002
 DIRECTION dim           43  value    3.2582518261010350E-003
 DIRECTION dim           44  value    4.0122336750645679E-002
 DIRECTION dim           45  value   -6.2971688894359317E-003
 DIRECTION dim           46  value   -8.7765921791090416E-003
 DIRECTION dim           47  value    1.2966608222438504E-002
 DIRECTION dim           48  value   -7.9448849594871696E-003
  Cycle:     10 Energy:      -420.741959  Gnorm:      4.049566  CPU:    0.064
 ALPHA BEFORE:    6.4518228725113300E-002
 XC BEFORE:    2.0629525570675850E-002
  ** Opt : line minimisation
left   ...       0.00000000    -420.74195903
centre ...       0.01612956    -421.32418697
right  ...       0.03225911    -421.85053241

left   ...       0.00000000    -420.74195903
centre ...       0.01612956    -421.32418697
right  ...       0.03225911    -421.85053241
new    ...       0.17611521    -424.44068753

__s__    ...       0.14385610

left   ...       0.01612956    -421.32418697
centre ...       0.03225911    -421.85053241
right  ...       0.17611521    -424.44068753
new    ...       0.20265358    -424.56793207

__s__    ...       0.02653837

 ALPHA AFTER:   0.20265357779691687     
 XC AFTER:    1.8739658391955866E-002
 SANITY CHECK:   0.20265357779691689     
 DIRECTION dim            1  value   -9.3256048043418010E-003
 DIRECTION dim            2  value    5.9844099879493131E-003
 DIRECTION dim            3  value   0.10379888917246100     
 DIRECTION dim            4  value   -2.1115501692757884E-002
 DIRECTION dim            5  value   -1.4503443400739838E-002
 DIRECTION dim            6  value   -9.1317031248959873E-002
 DIRECTION dim            7  value    1.3985336627951034E-002
 DIRECTION dim            8  value    2.2820556228439384E-002
 DIRECTION dim            9  value    5.1382596653844745E-002
 DIRECTION dim           10  value   -9.4413202981357709E-003
 DIRECTION dim           11  value    1.4184562452551258E-002
 DIRECTION dim           12  value   -2.2554958422436787E-002
 DIRECTION dim           13  value    6.9271633167695745E-002
 DIRECTION dim           14  value   -2.3579413347722161E-002
 DIRECTION dim           15  value   -3.4713539833756558E-002
 DIRECTION dim           16  value   -1.1181471583263415E-002
 DIRECTION dim           17  value    8.9192207301950991E-003
 DIRECTION dim           18  value    1.9493377526186212E-002
 DIRECTION dim           19  value   -3.2532452779210547E-002
 DIRECTION dim           20  value   -9.7226164575701171E-003
 DIRECTION dim           21  value   -1.9627547618624407E-002
 DIRECTION dim           22  value    1.1378522456292638E-002
 DIRECTION dim           23  value    9.0224898054253166E-003
 DIRECTION dim           24  value    8.0968399408393496E-002
 DIRECTION dim           25  value    3.6715543563120984E-002
 DIRECTION dim           26  value    3.8180046928875579E-003
 DIRECTION dim           27  value   -3.8971777691038656E-002
 DIRECTION dim           28  value   -2.3306806720560822E-002
 DIRECTION dim           29  value    2.5208461788203814E-003
 DIRECTION dim           30  value   -3.3173874385856165E-002
 DIRECTION dim           31  value   -2.6734964163056152E-002
 DIRECTION dim           32  value   -2.5756432788679812E-002
 DIRECTION dim           33  value    1.2006974914473424E-002
 DIRECTION dim           34  value    2.8401920852073298E-002
 DIRECTION dim           35  value   -1.9943950467823423E-003
 DIRECTION dim           36  value    4.7520640862145892E-002
 DIRECTION dim           37  value    2.2335288036534673E-002
 DIRECTION dim           38  value   -1.6095655226111956E-002
 DIRECTION dim           39  value   -7.4791814164345827E-003
 DIRECTION dim           40  value   -3.6144858957593756E-002
 DIRECTION dim           41  value    1.6116560497145875E-002
 DIRECTION dim           42  value    2.3124106348978508E-002
 DIRECTION dim           43  value   -9.9811166067064385E-003
 DIRECTION dim           44  value    4.6521751347706433E-002
 DIRECTION dim           45  value   -2.0353747423161751E-002
 DIRECTION dim           46  value   -1.4266977943318188E-002
 DIRECTION dim           47  value    1.3255052629536241E-002
 DIRECTION dim           48  value   -1.5412678523219734E-002
  Cycle:     11 Energy:      -424.567932  Gnorm:      5.039439  CPU:    0.068
 Perform trimming
 ALPHA BEFORE:   0.20265357779691687     
 XC BEFORE:    1.8739658391955866E-002
  ** Opt : line minimisation
left   ...       0.00000000    -424.56793207
centre ...       0.05066339    -426.67829613
right  ...       0.10132679    -427.60671238

left   ...       0.00000000    -424.56793207
centre ...       0.05066339    -426.67829613
right  ...       0.10132679    -427.60671238
new    ...       0.11579103    -427.59571062

__s__    ...       0.01446424

 ALPHA AFTER:   0.10132678889845843     
 XC AFTER:    1.7768894927128059E-002
 SANITY CHECK:   0.10132678889845856     
 DIRECTION dim            1  value   -9.5805213545316990E-003
 DIRECTION dim            2  value    1.6241398948343987E-002
 DIRECTION dim            3  value   0.11374342336959281     
 DIRECTION dim            4  value   -2.3753634353906459E-002
 DIRECTION dim            5  value   -2.7787765515968139E-002
 DIRECTION dim            6  value  -0.15178463588699842     
 DIRECTION dim            7  value    2.3433468670073933E-002
 DIRECTION dim            8  value    2.5208954628662759E-002
 DIRECTION dim            9  value   0.10066629034952197     
 DIRECTION dim           10  value   -1.5205994637011704E-002
 DIRECTION dim           11  value    2.0967586175504347E-002
 DIRECTION dim           12  value   -3.1487634865634148E-002
 DIRECTION dim           13  value   0.11994715405148258     
 DIRECTION dim           14  value   -5.1051526862033625E-002
 DIRECTION dim           15  value   -3.7399852121548344E-003
 DIRECTION dim           16  value   -1.0980850104686775E-002
 DIRECTION dim           17  value    2.0872696720654477E-002
 DIRECTION dim           18  value    8.8437144664732639E-002
 DIRECTION dim           19  value   -1.6720616798415164E-002
 DIRECTION dim           20  value   -1.5257371514861805E-002
 DIRECTION dim           21  value    1.0068388863540936E-002
 DIRECTION dim           22  value    2.7170068396574494E-002
 DIRECTION dim           23  value    1.6571014636659599E-002
 DIRECTION dim           24  value    6.4420624435591836E-002
 DIRECTION dim           25  value    5.7160664994054915E-002
 DIRECTION dim           26  value    9.8141894929287300E-003
 DIRECTION dim           27  value   -3.3726330091904191E-002
 DIRECTION dim           28  value   -3.4113444307454492E-002
 DIRECTION dim           29  value    2.0316117087833059E-003
 DIRECTION dim           30  value   -2.5967307345976225E-003
 DIRECTION dim           31  value   -4.7667979687715342E-002
 DIRECTION dim           32  value   -4.3005933462298612E-002
 DIRECTION dim           33  value    2.5215419967462561E-002
 DIRECTION dim           34  value    6.3039339910048097E-003
 DIRECTION dim           35  value   -4.3912524725339279E-004
 DIRECTION dim           36  value    4.5637815197469178E-002
 DIRECTION dim           37  value    2.1503104579767136E-002
 DIRECTION dim           38  value   -2.5383987873819173E-002
 DIRECTION dim           39  value    7.9535761219968082E-004
 DIRECTION dim           40  value   -6.3672591393606953E-002
 DIRECTION dim           41  value    3.3949270958020472E-002
 DIRECTION dim           42  value  -0.11673452532422633     
 DIRECTION dim           43  value   -2.0249867456307611E-002
 DIRECTION dim           44  value    7.1708858902471903E-002
 DIRECTION dim           45  value   -4.0949345410811071E-002
 DIRECTION dim           46  value   -2.5589177025048107E-002
 DIRECTION dim           47  value    1.7829333596835917E-002
 DIRECTION dim           48  value   -2.9261776729730002E-002
  Cycle:     12 Energy:      -427.606712  Gnorm:      3.829345  CPU:    0.071
 ALPHA BEFORE:   0.10132678889845843     
 XC BEFORE:    1.7768894927128059E-002
  ** Opt : line minimisation
left   ...       0.00000000    -427.60671238
centre ...       0.02533170    -428.46802808
right  ...       0.05066339    -429.24124796

left   ...       0.00000000    -427.60671238
centre ...       0.02533170    -428.46802808
right  ...       0.05066339    -429.24124796
new    ...       0.26033470    -431.97201564

__s__    ...       0.20967130

left   ...       0.02533170    -428.46802808
centre ...       0.05066339    -429.24124796
right  ...       0.26033470    -431.97201564
new    ...       0.24294846    -432.01295574

__s__    ...      -0.01738624

 ALPHA AFTER:   0.24294845639939444     
 XC AFTER:    1.5967173321669789E-002
 SANITY CHECK:   0.24294845639939455     
 DIRECTION dim            1  value   -7.4160652517023338E-003
 DIRECTION dim            2  value    1.8154667700101948E-002
 DIRECTION dim            3  value   -2.8097929521660181E-004
 DIRECTION dim            4  value   -2.3619782612039515E-003
 DIRECTION dim            5  value   -2.8600277751713345E-002
 DIRECTION dim            6  value  -0.12826574866949411     
 DIRECTION dim            7  value    1.7802634552331737E-002
 DIRECTION dim            8  value    4.0071673386583382E-003
 DIRECTION dim            9  value    7.1386238953008552E-002
 DIRECTION dim           10  value   -1.1457810924753356E-002
 DIRECTION dim           11  value    1.2133553392394705E-002
 DIRECTION dim           12  value    5.0177900844206383E-003
 DIRECTION dim           13  value   0.10093200275160571     
 DIRECTION dim           14  value   -1.6158797844894764E-002
 DIRECTION dim           15  value   -5.5460592935049541E-002
 DIRECTION dim           16  value   -1.2041951359654544E-002
 DIRECTION dim           17  value    2.2874594476215204E-002
 DIRECTION dim           18  value    9.8525560999401046E-002
 DIRECTION dim           19  value    2.8253162253361511E-002
 DIRECTION dim           20  value   -1.4034669313128360E-002
 DIRECTION dim           21  value    2.9130729986771488E-002
 DIRECTION dim           22  value    3.3154989985179635E-002
 DIRECTION dim           23  value    1.4925940594821533E-002
 DIRECTION dim           24  value   -1.4724313272552060E-002
 DIRECTION dim           25  value    4.0154845417499467E-002
 DIRECTION dim           26  value    1.3037221978530470E-002
 DIRECTION dim           27  value   -6.3710763527157488E-003
 DIRECTION dim           28  value   -2.4544041690735926E-002
 DIRECTION dim           29  value   -1.6364700378871614E-003
 DIRECTION dim           30  value    2.8908321168506314E-002
 DIRECTION dim           31  value   -4.2781578409434570E-002
 DIRECTION dim           32  value   -3.5061484050112487E-002
 DIRECTION dim           33  value    1.1908721261601970E-002
 DIRECTION dim           34  value   -4.1896117990243342E-002
 DIRECTION dim           35  value    6.7222126970095507E-003
 DIRECTION dim           36  value    1.7870176481095928E-002
 DIRECTION dim           37  value    1.1173625508635621E-002
 DIRECTION dim           38  value   -1.2589491518359350E-002
 DIRECTION dim           39  value    5.1296395995076398E-002
 DIRECTION dim           40  value   -5.5890936862119114E-002
 DIRECTION dim           41  value    1.4933758763662376E-002
 DIRECTION dim           42  value    2.0883349631202419E-002
 DIRECTION dim           43  value   -1.5630766649148042E-002
 DIRECTION dim           44  value    3.6669561491740978E-002
 DIRECTION dim           45  value   -4.3549450673133899E-002
 DIRECTION dim           46  value   -1.9451528287169999E-002
 DIRECTION dim           47  value    1.4722268168633045E-002
 DIRECTION dim           48  value   -2.3031523387516732E-002
  Cycle:     13 Energy:      -432.012956  Gnorm:      4.997096  CPU:    0.075
 Perform trimming
 ALPHA BEFORE:   0.24294845639939444     
 XC BEFORE:    1.5967173321669789E-002
  ** Opt : line minimisation
left   ...       0.00000000    -432.01295574
centre ...       0.06073711    -433.60100253
right  ...       0.12147423    -433.15057486

left   ...       0.00000000    -432.01295574
centre ...       0.06073711    -433.60100253
right  ...       0.12147423    -433.15057486
new    ...       0.07768501    -433.70103634

__s__    ...      -0.04378922

left   ...       0.06073711    -433.60100253
centre ...       0.07768501    -433.70103634
right  ...       0.12147423    -433.15057486
new    ...       0.07891425    -433.70183290

__s__    ...       0.00122924

 ALPHA AFTER:    7.8914250085566642E-002
 XC AFTER:    1.5067657392221016E-002
 SANITY CHECK:    7.8914250085566823E-002
 DIRECTION dim            1  value   -1.1398650161072645E-002
 DIRECTION dim            2  value    2.7596830537251708E-002
 DIRECTION dim            3  value    4.4808935612668160E-002
 DIRECTION dim            4  value    1.6939698307762888E-002
 DIRECTION dim            5  value   -4.7940450660273234E-002
 DIRECTION dim            6  value  -0.16124042139899597     
 DIRECTION dim            7  value    1.7128670455625952E-002
 DIRECTION dim            8  value    2.3096235661231529E-003
 DIRECTION dim            9  value    6.9756157532889676E-002
 DIRECTION dim           10  value   -1.7333372213435349E-002
 DIRECTION dim           11  value    1.6061276263780920E-002
 DIRECTION dim           12  value    8.6898887934077126E-003
 DIRECTION dim           13  value   0.16290625193207797     
 DIRECTION dim           14  value   -2.2529836968939846E-002
 DIRECTION dim           15  value   -6.3282399414306162E-002
 DIRECTION dim           16  value   -3.9288958520400624E-002
 DIRECTION dim           17  value    3.3154167673082657E-002
 DIRECTION dim           18  value    7.3255672473151789E-002
 DIRECTION dim           19  value    4.8890092715300371E-002
 DIRECTION dim           20  value   -3.4897708099093927E-002
 DIRECTION dim           21  value   -6.6100725799233323E-003
 DIRECTION dim           22  value    5.8033814757328279E-002
 DIRECTION dim           23  value    2.4489345628072201E-002
 DIRECTION dim           24  value   -5.4599001658683734E-002
 DIRECTION dim           25  value    5.9126720686521486E-002
 DIRECTION dim           26  value    2.3736967380476180E-002
 DIRECTION dim           27  value    8.5647972033205885E-003
 DIRECTION dim           28  value   -3.7156254627485868E-002
 DIRECTION dim           29  value   -4.0914439881234790E-003
 DIRECTION dim           30  value    4.6437458476206082E-002
 DIRECTION dim           31  value   -6.9063129651118951E-002
 DIRECTION dim           32  value   -5.6062792783584427E-002
 DIRECTION dim           33  value    3.2700598213972400E-002
 DIRECTION dim           34  value   -7.0849738675576535E-002
 DIRECTION dim           35  value    2.2091985657758016E-002
 DIRECTION dim           36  value    4.0381027381936017E-002
 DIRECTION dim           37  value    3.2765079832302590E-002
 DIRECTION dim           38  value   -5.4666344647622874E-003
 DIRECTION dim           39  value   0.16774919191202492     
 DIRECTION dim           40  value   -8.8986390579009741E-002
 DIRECTION dim           41  value    2.1925771706100192E-002
 DIRECTION dim           42  value   -4.7717548238648218E-002
 DIRECTION dim           43  value   -1.6869324080420925E-002
 DIRECTION dim           44  value    4.8571699187980745E-002
 DIRECTION dim           45  value   -5.2190918066250654E-002
 DIRECTION dim           46  value   -3.0342305292316539E-002
 DIRECTION dim           47  value    2.5004408068439468E-002
 DIRECTION dim           48  value   -3.4617234118249809E-002
  Cycle:     14 Energy:      -433.701833  Gnorm:      3.202397  CPU:    0.079
 ALPHA BEFORE:    7.8914250085566642E-002
 XC BEFORE:    1.5067657392221016E-002
  ** Opt : line minimisation
left   ...       0.00000000    -433.70183290
centre ...       0.01972856    -434.14209183
right  ...       0.03945713    -434.53278441

left   ...       0.00000000    -433.70183290
centre ...       0.01972856    -434.14209183
right  ...       0.03945713    -434.53278441
new    ...       0.18509758    -435.95103490

__s__    ...       0.14564046

left   ...       0.01972856    -434.14209183
centre ...       0.03945713    -434.53278441
right  ...       0.18509758    -435.95103490
new    ...       0.19227279    -435.95715414

__s__    ...       0.00717521

 ALPHA AFTER:   0.19227278937518771     
 XC AFTER:    1.3723731784492890E-002
 SANITY CHECK:   0.19227278937518769     
 DIRECTION dim            1  value   -6.9896817542168341E-003
 DIRECTION dim            2  value    6.9500496768004289E-003
 DIRECTION dim            3  value    5.3265701719161250E-002
 DIRECTION dim            4  value    3.2611172885711269E-002
 DIRECTION dim            5  value   -2.0609641199132597E-002
 DIRECTION dim            6  value    3.6881672812538020E-002
 DIRECTION dim            7  value   -1.3655713335692222E-002
 DIRECTION dim            8  value   -4.7419525852322991E-003
 DIRECTION dim            9  value    1.0012424534495089E-002
 DIRECTION dim           10  value   -4.5950467782774063E-003
 DIRECTION dim           11  value    1.9647583296950183E-003
 DIRECTION dim           12  value   -7.7390655310393564E-003
 DIRECTION dim           13  value    5.5134063108677800E-002
 DIRECTION dim           14  value    6.2041829157940594E-003
 DIRECTION dim           15  value   -2.4947136112228877E-002
 DIRECTION dim           16  value   -1.9181153248072579E-002
 DIRECTION dim           17  value    1.1243988595591486E-002
 DIRECTION dim           18  value   -2.9090246547827863E-002
 DIRECTION dim           19  value    4.1939155224805210E-003
 DIRECTION dim           20  value   -3.7133197476122065E-002
 DIRECTION dim           21  value   -4.7952861374928019E-002
 DIRECTION dim           22  value    2.4764848792866702E-002
 DIRECTION dim           23  value    9.1462447526979053E-003
 DIRECTION dim           24  value   -4.7096716477634228E-002
 DIRECTION dim           25  value    1.4980355185942682E-002
 DIRECTION dim           26  value    1.1500989528989532E-002
 DIRECTION dim           27  value    3.0089106081121083E-002
 DIRECTION dim           28  value   -1.1011839661994233E-002
 DIRECTION dim           29  value   -2.4248452021813065E-003
 DIRECTION dim           30  value    5.7744770058062557E-003
 DIRECTION dim           31  value   -2.5014361942629577E-002
 DIRECTION dim           32  value   -1.9827063502244249E-002
 DIRECTION dim           33  value    3.9783618097787861E-002
 DIRECTION dim           34  value   -2.2735963652633431E-002
 DIRECTION dim           35  value    2.7823499538367238E-002
 DIRECTION dim           36  value   -4.2335123242716280E-002
 DIRECTION dim           37  value    2.6271948296478734E-002
 DIRECTION dim           38  value    1.7720324171747993E-002
 DIRECTION dim           39  value    2.1779814711600672E-002
 DIRECTION dim           40  value   -2.4543971195825770E-002
 DIRECTION dim           41  value    5.2659913833712386E-004
 DIRECTION dim           42  value    2.4924316040143203E-002
 DIRECTION dim           43  value   -1.7676525276748422E-003
 DIRECTION dim           44  value   -4.4729070384471620E-003
 DIRECTION dim           45  value    1.0879424107207235E-002
 DIRECTION dim           46  value   -9.6464610524815541E-003
 DIRECTION dim           47  value    8.7968542629020506E-003
 DIRECTION dim           48  value   -1.0096514573611498E-002
  Cycle:     15 Energy:      -435.957154  Gnorm:      2.899862  CPU:    0.083
 ALPHA BEFORE:   0.19227278937518771     
 XC BEFORE:    1.3723731784492890E-002
  ** Opt : line minimisation
left   ...       0.00000000    -435.95715414
centre ...       0.04806820    -436.65467691
right  ...       0.09613639    -436.90548271

left   ...       0.00000000    -435.95715414
centre ...       0.04806820    -436.65467691
right  ...       0.09613639    -436.90548271
new    ...       0.09908981    -436.90791040

__s__    ...       0.00295342

 ALPHA AFTER:    9.9089814277842303E-002
 XC AFTER:    1.2851180976345768E-002
 SANITY CHECK:    9.9089814277842053E-002
 DIRECTION dim            1  value   -8.8056559042540977E-003
 DIRECTION dim            2  value    7.4203643247361751E-003
 DIRECTION dim            3  value   -6.1086843094933889E-002
 DIRECTION dim            4  value    5.2519206027099016E-002
 DIRECTION dim            5  value   -4.0919384447502274E-002
 DIRECTION dim            6  value    1.3534975845765157E-002
 DIRECTION dim            7  value   -2.1515677021641859E-002
 DIRECTION dim            8  value   -1.4279788077199705E-002
 DIRECTION dim            9  value   -1.4507767164016047E-002
 DIRECTION dim           10  value   -3.4979858498197527E-003
 DIRECTION dim           11  value    2.5079554951361717E-003
 DIRECTION dim           12  value    1.0068523994609408E-003
 DIRECTION dim           13  value    7.7703200644125892E-002
 DIRECTION dim           14  value    4.6610210626398616E-003
 DIRECTION dim           15  value   -5.4028359883635264E-003
 DIRECTION dim           16  value   -9.0524751290308944E-003
 DIRECTION dim           17  value    2.0775942792289274E-002
 DIRECTION dim           18  value   -9.8402749813995584E-003
 DIRECTION dim           19  value   -1.5495782669415047E-002
 DIRECTION dim           20  value   -4.9505519357626725E-002
 DIRECTION dim           21  value   -4.8757726640644226E-002
 DIRECTION dim           22  value    2.9104463187589195E-002
 DIRECTION dim           23  value    1.1596581278696085E-002
 DIRECTION dim           24  value   -3.8228637968553331E-002
 DIRECTION dim           25  value    1.9235505445948996E-002
 DIRECTION dim           26  value    1.3499945447774591E-002
 DIRECTION dim           27  value    2.9651127601099770E-002
 DIRECTION dim           28  value   -1.1093783382874716E-002
 DIRECTION dim           29  value   -1.0953541427832251E-003
 DIRECTION dim           30  value   -1.1172767749220503E-002
 DIRECTION dim           31  value   -3.3618757159428442E-002
 DIRECTION dim           32  value   -2.5929833204759632E-002
 DIRECTION dim           33  value    5.5527420313171705E-002
 DIRECTION dim           34  value   -1.9268686361542393E-002
 DIRECTION dim           35  value    4.6845077147249781E-002
 DIRECTION dim           36  value   -2.7927461593007200E-002
 DIRECTION dim           37  value    1.9761148987844097E-002
 DIRECTION dim           38  value    3.0913552884483324E-002
 DIRECTION dim           39  value    2.8715883646672984E-002
 DIRECTION dim           40  value   -2.4094875191236213E-002
 DIRECTION dim           41  value   -2.1365512035403339E-003
 DIRECTION dim           42  value    4.1353827944060284E-002
 DIRECTION dim           43  value   -4.6936546886566198E-003
 DIRECTION dim           44  value   -2.1928650171331429E-002
 DIRECTION dim           45  value    2.9389365412988228E-002
 DIRECTION dim           46  value   -1.7925379434074427E-002
 DIRECTION dim           47  value    1.3501551479845409E-002
 DIRECTION dim           48  value   -1.4392278219834556E-002
  Cycle:     16 Energy:      -436.907910  Gnorm:      3.606687  CPU:    0.086
 Perform trimming
 ALPHA BEFORE:    9.9089814277842303E-002
 XC BEFORE:    1.2851180976345768E-002
  ** Opt : line minimisation
left   ...       0.00000000    -436.90791040
centre ...       0.02477245    -437.48833913
right  ...       0.04954491    -437.92370232

left   ...       0.00000000    -436.90791040
centre ...       0.02477245    -437.48833913
right  ...       0.04954491    -437.92370232
new    ...       0.11150449    -438.38878166

__s__    ...       0.06195958

left   ...       0.02477245    -437.48833913
centre ...       0.04954491    -437.92370232
right  ...       0.11150449    -438.38878166
new    ...       0.11285512    -438.38907879

__s__    ...       0.00135063

 ALPHA AFTER:   0.11285511510262475     
 XC AFTER:    1.2257223166983437E-002
 SANITY CHECK:   0.11285511510262453     
 DIRECTION dim            1  value   -5.2630118610239099E-003
 DIRECTION dim            2  value    9.9037837502331423E-003
 DIRECTION dim            3  value   -5.4867618472095668E-002
 DIRECTION dim            4  value    8.6799593025625690E-002
 DIRECTION dim            5  value   -7.6298000750759931E-002
 DIRECTION dim            6  value   -1.0230181204917060E-002
 DIRECTION dim            7  value   -3.0989482721235043E-002
 DIRECTION dim            8  value   -2.1349009300886380E-002
 DIRECTION dim            9  value   -3.5783281896831436E-002
 DIRECTION dim           10  value   -3.3049416767303463E-003
 DIRECTION dim           11  value    4.8088799422807112E-003
 DIRECTION dim           12  value    9.5307293599559730E-003
 DIRECTION dim           13  value   0.12622992852942211     
 DIRECTION dim           14  value    4.3228762816760616E-003
 DIRECTION dim           15  value    6.6245473959757641E-003
 DIRECTION dim           16  value   -4.2062308140114633E-003
 DIRECTION dim           17  value    3.4851294733952112E-002
 DIRECTION dim           18  value   -5.5999528528376261E-003
 DIRECTION dim           19  value   -3.6891039408961247E-002
 DIRECTION dim           20  value   -7.4972398533735038E-002
 DIRECTION dim           21  value   -4.6941795628474940E-002
 DIRECTION dim           22  value    4.1955505292923724E-002
 DIRECTION dim           23  value    1.7584077181659438E-002
 DIRECTION dim           24  value   -4.3042095479624488E-002
 DIRECTION dim           25  value    3.0765617129911185E-002
 DIRECTION dim           26  value    1.9144781094744587E-002
 DIRECTION dim           27  value    3.8546770295985154E-002
 DIRECTION dim           28  value   -1.3411122560451644E-002
 DIRECTION dim           29  value    3.5353330325006168E-004
 DIRECTION dim           30  value   -1.9803034073740202E-002
 DIRECTION dim           31  value   -5.3497631176367640E-002
 DIRECTION dim           32  value   -4.0645508873798253E-002
 DIRECTION dim           33  value    9.2448166688262473E-002
 DIRECTION dim           34  value   -2.2155286552084777E-002
 DIRECTION dim           35  value    7.6776583744708610E-002
 DIRECTION dim           36  value   -3.4888398657640748E-002
 DIRECTION dim           37  value    1.7586684698092606E-002
 DIRECTION dim           38  value    5.3120990242004992E-002
 DIRECTION dim           39  value    2.1682649891665105E-002
 DIRECTION dim           40  value   -3.6850807286120918E-002
 DIRECTION dim           41  value   -1.3671265193925768E-002
 DIRECTION dim           42  value   -7.0703341916353496E-002
 DIRECTION dim           43  value   -1.1862981355854950E-002
 DIRECTION dim           44  value   -4.0816435781384407E-002
 DIRECTION dim           45  value    4.9530125729294806E-002
 DIRECTION dim           46  value   -3.1178316322124772E-002
 DIRECTION dim           47  value    1.8876133223067249E-002
 DIRECTION dim           48  value   -2.3295967506812780E-002
  Cycle:     17 Energy:      -438.389079  Gnorm:      3.526414  CPU:    0.090
 ALPHA BEFORE:   0.11285511510262475     
 XC BEFORE:    1.2257223166983437E-002
  ** Opt : line minimisation
left   ...       0.00000000    -438.38907879
centre ...       0.02821378    -439.14276385
right  ...       0.05642756    -439.77912440

left   ...       0.00000000    -438.38907879
centre ...       0.02821378    -439.14276385
right  ...       0.05642756    -439.77912440
new    ...       0.19535038    -441.09904769

__s__    ...       0.13892283

left   ...       0.02821378    -439.14276385
centre ...       0.05642756    -439.77912440
right  ...       0.19535038    -441.09904769
new    ...       0.18671349    -441.10973822

__s__    ...      -0.00863689

 ALPHA AFTER:   0.18671349148423541     
 XC AFTER:    1.2832982592373388E-002
 SANITY CHECK:   0.18671349148423563     
 DIRECTION dim            1  value    3.0836519675845860E-003
 DIRECTION dim            2  value    6.8522815556280132E-003
 DIRECTION dim            3  value    1.5107887115605741E-002
 DIRECTION dim            4  value    9.4704303413698648E-002
 DIRECTION dim            5  value  -0.10039056101554074     
 DIRECTION dim            6  value   -5.8006144360727811E-002
 DIRECTION dim            7  value   -2.0561102870710717E-002
 DIRECTION dim            8  value   -1.2027384918712289E-002
 DIRECTION dim            9  value   -2.7770373477864804E-002
 DIRECTION dim           10  value    1.1829563131882321E-004
 DIRECTION dim           11  value    7.6133503177173356E-003
 DIRECTION dim           12  value    3.6860354609037554E-002
 DIRECTION dim           13  value   0.12933338690525881     
 DIRECTION dim           14  value    2.1493388126952374E-002
 DIRECTION dim           15  value   -4.6733567864640183E-002
 DIRECTION dim           16  value    4.1270809601901808E-003
 DIRECTION dim           17  value    3.5968944036480294E-002
 DIRECTION dim           18  value   -2.6206443838588597E-004
 DIRECTION dim           19  value   -5.0916638600261369E-002
 DIRECTION dim           20  value   -7.5563142542844949E-002
 DIRECTION dim           21  value    7.9920043697843876E-003
 DIRECTION dim           22  value    3.9055667886580173E-002
 DIRECTION dim           23  value    1.7419567435848153E-002
 DIRECTION dim           24  value   -1.3142977083714018E-002
 DIRECTION dim           25  value    3.4914437196771300E-002
 DIRECTION dim           26  value    1.6693110528014754E-002
 DIRECTION dim           27  value    1.6230628200154775E-002
 DIRECTION dim           28  value   -9.3495197470971850E-003
 DIRECTION dim           29  value    3.0153822928626721E-003
 DIRECTION dim           30  value   -2.7622213476722751E-002
 DIRECTION dim           31  value   -5.8982307184410963E-002
 DIRECTION dim           32  value   -4.3835735393990272E-002
 DIRECTION dim           33  value    9.5514139736178713E-002
 DIRECTION dim           34  value   -2.2039365313236921E-002
 DIRECTION dim           35  value    8.3204597304370354E-002
 DIRECTION dim           36  value   -5.4369283692072182E-002
 DIRECTION dim           37  value    6.7645045442621260E-003
 DIRECTION dim           38  value    6.3654480065842789E-002
 DIRECTION dim           39  value   -6.4004684530740277E-002
 DIRECTION dim           40  value   -3.6438503250744339E-002
 DIRECTION dim           41  value   -2.5503860901389931E-002
 DIRECTION dim           42  value   -8.6695255440466593E-003
 DIRECTION dim           43  value   -2.3100892199886369E-002
 DIRECTION dim           44  value   -5.6120331901625603E-002
 DIRECTION dim           45  value    5.2299444528040223E-002
 DIRECTION dim           46  value   -4.0683748731959755E-002
 DIRECTION dim           47  value    1.7309668301186295E-002
 DIRECTION dim           48  value   -1.9467498645477716E-002
  Cycle:     18 Energy:      -441.109738  Gnorm:      4.781822  CPU:    0.093
 Perform trimming
 ALPHA BEFORE:   0.18671349148423541     
 XC BEFORE:    1.2832982592373388E-002
  ** Opt : line minimisation
left   ...       0.00000000    -441.10973822
centre ...       0.04667837    -442.54827427
right  ...       0.09335675    -443.27231199

left   ...       0.00000000    -441.10973822
centre ...       0.04667837    -442.54827427
right  ...       0.09335675    -443.27231199
new    ...       0.11731914    -443.29168172

__s__    ...       0.02396240

 ALPHA AFTER:   0.11731914383922920     
 XC AFTER:    1.4520622415721354E-002
 SANITY CHECK:   0.11731914383922913     
 DIRECTION dim            1  value    1.4385033576963876E-002
 DIRECTION dim            2  value    8.7995480789575392E-003
 DIRECTION dim            3  value    1.0353963753658954E-002
 DIRECTION dim            4  value   0.14232992392506619     
 DIRECTION dim            5  value  -0.15828419308454417     
 DIRECTION dim            6  value  -0.13176020629233529     
 DIRECTION dim            7  value   -1.5318564448802143E-002
 DIRECTION dim            8  value   -2.3605879386963328E-003
 DIRECTION dim            9  value   -6.1024490405501404E-002
 DIRECTION dim           10  value    2.1130832335206555E-003
 DIRECTION dim           11  value    1.3040625304458091E-002
 DIRECTION dim           12  value    8.7101218085646970E-002
 DIRECTION dim           13  value   0.18759550507373210     
 DIRECTION dim           14  value    4.1628837178812196E-002
 DIRECTION dim           15  value   -9.1977461067596383E-002
 DIRECTION dim           16  value    6.4400784655726058E-003
[...]
right  ...      -0.08950617    -465.37973763

left   ...      -0.08950617    -465.37973763
centre ...       0.00000000    -465.37975090
right  ...       0.08950617    -465.37958889
new    ...      -0.03797725    -465.37974531

__s__    ...       0.05152893

left   ...      -0.03797725    -465.37974531
centre ...       0.00000000    -465.37975090
right  ...       0.08950617    -465.37958889
new    ...      -0.01419079    -465.37974882

__s__    ...       0.02378645

left   ...      -0.01419079    -465.37974882
centre ...       0.00000000    -465.37975090
right  ...       0.08950617    -465.37958889
new    ...      -0.00320313    -465.37975043

__s__    ...       0.01098767

left   ...      -0.00320313    -465.37975043
centre ...       0.00000000    -465.37975090
right  ...       0.08950617    -465.37958889
new    ...       0.00187401    -465.37957618

__s__    ...       0.00507714

left   ...      -0.00320313    -465.37975043
centre ...       0.00000000    -465.37975090
right  ...       0.00187401    -465.37957618
new    ...      -0.00159758    -465.37975067

__s__    ...      -0.00347158

left   ...      -0.00159758    -465.37975067
centre ...       0.00000000    -465.37975090
right  ...       0.00187401    -465.37957618
new    ...      -0.00079606    -465.37975078

__s__    ...       0.00080151

 ALPHA AFTER:   -7.9606118244228516E-004
 XC AFTER:    8.3970261413386010E-002
 SANITY CHECK:   -0.0000000000000000     
 DIRECTION dim            1  value   -1.3125520707239482E-003
 DIRECTION dim            2  value   -8.0088306421995787E-004
 DIRECTION dim            3  value   -1.1863627624905061E-004
 DIRECTION dim            4  value   -1.7237363601163556E-003
 DIRECTION dim            5  value   -1.0484468274117324E-003
 DIRECTION dim            6  value   -1.5590292354615811E-004
 DIRECTION dim            7  value   -1.9444500968024512E-003
 DIRECTION dim            8  value   -1.1584354110854140E-003
 DIRECTION dim            9  value   -1.5723653825370801E-004
 DIRECTION dim           10  value   -1.3977075145893295E-003
 DIRECTION dim           11  value   -9.4605781339487558E-004
 DIRECTION dim           12  value   -2.2372182194778479E-004
 DIRECTION dim           13  value   -3.8001877760854920E-004
 DIRECTION dim           14  value   -3.4633656353948833E-004
 DIRECTION dim           15  value   -1.3667802411105784E-004
 DIRECTION dim           16  value   -2.0892276272007058E-003
 DIRECTION dim           17  value   -1.2269354222098031E-003
 DIRECTION dim           18  value   -1.6063354453704626E-004
 DIRECTION dim           19  value   -2.1507620032750678E-003
 DIRECTION dim           20  value   -1.2663167986298463E-003
 DIRECTION dim           21  value   -1.6862419568538741E-004
 DIRECTION dim           22  value   -1.9399802395130521E-004
 DIRECTION dim           23  value   -2.1616421642301200E-004
 DIRECTION dim           24  value   -1.0119802095644126E-004
 DIRECTION dim           25  value   -7.6041838936416885E-004
 DIRECTION dim           26  value   -5.8253142385942494E-004
 DIRECTION dim           27  value   -1.8186038660308431E-004
 DIRECTION dim           28  value    8.3555885793753545E-006
 DIRECTION dim           29  value   -4.4177633997659982E-005
 DIRECTION dim           30  value   -4.4893684935456637E-005
 DIRECTION dim           31  value   -1.9741521971604068E-003
 DIRECTION dim           32  value   -1.2285379648771424E-003
 DIRECTION dim           33  value   -2.1962589654866158E-004
 DIRECTION dim           34  value   -1.9429769456856629E-003
 DIRECTION dim           35  value   -1.1409892373190965E-003
 DIRECTION dim           36  value   -1.5022905373153361E-004
 DIRECTION dim           37  value   -1.8278870297548453E-003
 DIRECTION dim           38  value   -1.1163482185986065E-003
 DIRECTION dim           39  value   -1.6944246847773391E-004
 DIRECTION dim           40  value   -4.5226391725682004E-004
 DIRECTION dim           41  value   -3.3642566652924863E-004
 DIRECTION dim           42  value   -9.0581837008134967E-005
 DIRECTION dim           43  value   -1.1083463757537551E-004
 DIRECTION dim           44  value   -3.3288201528623681E-005
 DIRECTION dim           45  value    1.3717208309017010E-004
 DIRECTION dim           46  value   -1.5857476635589438E-004
 DIRECTION dim           47  value   -1.0382869896618011E-003
 DIRECTION dim           48  value   -1.7437067211177476E-004
  Cycle:    346 Energy:      -465.379751  Gnorm:      0.029419  CPU:    3.244
  ** Hessian calculated **
 ALPHA BEFORE:    1.0000000000000000     
 XC BEFORE:    8.3970261413386010E-002
  ** Opt : line minimisation
left   ...       0.00000000    -465.37975090
centre ...       0.25000000    -465.37972604
right  ...      -0.25000000    -465.37950462

left   ...      -0.25000000    -465.37950462
centre ...       0.00000000    -465.37975090
right  ...       0.25000000    -465.37972604
new    ...       0.10207989    -465.37964883

__s__    ...       0.35207989

left   ...      -0.25000000    -465.37950462
centre ...       0.00000000    -465.37975090
right  ...       0.10207989    -465.37964883
new    ...      -0.03763694    -465.37971998

__s__    ...      -0.13971683

left   ...      -0.03763694    -465.37971998
centre ...       0.00000000    -465.37975090
right  ...       0.10207989    -465.37964883
new    ...       0.01268860    -465.37958584

__s__    ...       0.05032554

left   ...      -0.03763694    -465.37971998
centre ...       0.00000000    -465.37975090
right  ...       0.01268860    -465.37958584
new    ...      -0.01732382    -465.37973694

__s__    ...      -0.03001242

left   ...      -0.01732382    -465.37973694
centre ...       0.00000000    -465.37975090
right  ...       0.01268860    -465.37958584
new    ...      -0.00778654    -465.37974468

__s__    ...       0.00953728

left   ...      -0.00778654    -465.37974468
centre ...       0.00000000    -465.37975090
right  ...       0.01268860    -465.37958584
new    ...      -0.00330120    -465.37974828

__s__    ...       0.00448534

 ALPHA AFTER:   -3.3011979937432115E-003
 XC AFTER:    8.3970261413386010E-002
 SANITY CHECK:   -0.0000000000000000     
 DIRECTION dim            1  value   -1.1589237368111839E-004
 DIRECTION dim            2  value   -7.7656072308575566E-005
 DIRECTION dim            3  value    1.6939050711711636E-005
 DIRECTION dim            4  value   -6.5043479883128210E-005
 DIRECTION dim            5  value   -7.4288601645111882E-005
 DIRECTION dim            6  value    3.8320213764165120E-005
 DIRECTION dim            7  value   -4.8659711541333592E-006
 DIRECTION dim            8  value   -6.1755757840286111E-005
 DIRECTION dim            9  value    2.2323535239635462E-006
 DIRECTION dim           10  value    2.0951014018360430E-005
 DIRECTION dim           11  value   -1.8855415685513011E-004
 DIRECTION dim           12  value    9.4552547063245438E-006
 DIRECTION dim           13  value   -5.3141533254195837E-005
 DIRECTION dim           14  value    2.4376661352150126E-004
 DIRECTION dim           15  value   -1.7361295853161883E-005
 DIRECTION dim           16  value    4.0801619883514024E-005
 DIRECTION dim           17  value   -5.9444685241861648E-005
 DIRECTION dim           18  value   -1.0473225591882944E-005
 DIRECTION dim           19  value    7.9956284323891591E-006
 DIRECTION dim           20  value   -7.2358297777329528E-005
 DIRECTION dim           21  value   -1.3483696872173021E-005
 DIRECTION dim           22  value   -2.3879014943709975E-005
 DIRECTION dim           23  value   -1.4245378169782671E-004
 DIRECTION dim           24  value   -4.3685146519471180E-006
 DIRECTION dim           25  value   -1.4828736342393801E-004
 DIRECTION dim           26  value    2.6522060231370036E-005
 DIRECTION dim           27  value    2.3378796254692144E-005
 DIRECTION dim           28  value   -1.6114198504945130E-004
 DIRECTION dim           29  value   -6.8309725604214543E-005
 DIRECTION dim           30  value    2.2402397983409839E-005
 DIRECTION dim           31  value   -3.5963696664960442E-005
 DIRECTION dim           32  value    4.0842327776889391E-005
 DIRECTION dim           33  value    1.8408905778537932E-005
 DIRECTION dim           34  value    8.6884885969479032E-005
 DIRECTION dim           35  value    4.8210531320812265E-005
 DIRECTION dim           36  value   -3.5747521815167588E-005
 DIRECTION dim           37  value   -4.4252166837024470E-005
 DIRECTION dim           38  value    1.6700706261920905E-004
 DIRECTION dim           39  value   -2.2509470989588040E-005
 DIRECTION dim           40  value    1.2803126582171915E-004
 DIRECTION dim           41  value   -1.8005295153642489E-004
 DIRECTION dim           42  value   -1.3009616715875430E-005
 DIRECTION dim           43  value    4.5127533989409530E-004
 DIRECTION dim           44  value    2.1928599042991348E-004
 DIRECTION dim           45  value    5.9974166609921234E-004
 DIRECTION dim           46  value    4.5010181382860803E-004
 DIRECTION dim           47  value   -1.3902583252244885E-003
 DIRECTION dim           48  value    5.7087338952766247E-004
  Cycle:    347 Energy:      -465.379751  Gnorm:      0.029419  CPU:    3.270
  ** Hessian calculated **
 ALPHA BEFORE:    1.0000000000000000     
 XC BEFORE:    8.3970261413386010E-002
  ** Opt : line minimisation
left   ...       0.00000000    -465.37975090
centre ...       0.25000000    -465.37972604
right  ...      -0.25000000    -465.37950462

left   ...      -0.25000000    -465.37950462
centre ...       0.00000000    -465.37975090
right  ...       0.25000000    -465.37972604
new    ...       0.10207989    -465.37964883

__s__    ...       0.35207989

left   ...      -0.25000000    -465.37950462
centre ...       0.00000000    -465.37975090
right  ...       0.10207989    -465.37964883
new    ...      -0.03763694    -465.37971998

__s__    ...      -0.13971683

left   ...      -0.03763694    -465.37971998
centre ...       0.00000000    -465.37975090
right  ...       0.10207989    -465.37964883
new    ...       0.01268860    -465.37958584

__s__    ...       0.05032554

left   ...      -0.03763694    -465.37971998
centre ...       0.00000000    -465.37975090
right  ...       0.01268860    -465.37958584
new    ...      -0.01732382    -465.37973694

__s__    ...      -0.03001242

left   ...      -0.01732382    -465.37973694
centre ...       0.00000000    -465.37975090
right  ...       0.01268860    -465.37958584
new    ...      -0.00778654    -465.37974468

__s__    ...       0.00953728

left   ...      -0.00778654    -465.37974468
centre ...       0.00000000    -465.37975090
right  ...       0.01268860    -465.37958584
new    ...      -0.00330120    -465.37974828

__s__    ...       0.00448534

 ALPHA AFTER:   -3.3011979937432115E-003
 XC AFTER:    8.3970261413386010E-002
 SANITY CHECK:   -0.0000000000000000     
 DIRECTION dim            1  value   -1.1589237368111839E-004
 DIRECTION dim            2  value   -7.7656072308575566E-005
 DIRECTION dim            3  value    1.6939050711711636E-005
 DIRECTION dim            4  value   -6.5043479883128210E-005
 DIRECTION dim            5  value   -7.4288601645111882E-005
 DIRECTION dim            6  value    3.8320213764165120E-005
 DIRECTION dim            7  value   -4.8659711541333592E-006
 DIRECTION dim            8  value   -6.1755757840286111E-005
 DIRECTION dim            9  value    2.2323535239635462E-006
 DIRECTION dim           10  value    2.0951014018360430E-005
 DIRECTION dim           11  value   -1.8855415685513011E-004
 DIRECTION dim           12  value    9.4552547063245438E-006
 DIRECTION dim           13  value   -5.3141533254195837E-005
 DIRECTION dim           14  value    2.4376661352150126E-004
 DIRECTION dim           15  value   -1.7361295853161883E-005
 DIRECTION dim           16  value    4.0801619883514024E-005
 DIRECTION dim           17  value   -5.9444685241861648E-005
 DIRECTION dim           18  value   -1.0473225591882944E-005
 DIRECTION dim           19  value    7.9956284323891591E-006
 DIRECTION dim           20  value   -7.2358297777329528E-005
 DIRECTION dim           21  value   -1.3483696872173021E-005
 DIRECTION dim           22  value   -2.3879014943709975E-005
 DIRECTION dim           23  value   -1.4245378169782671E-004
 DIRECTION dim           24  value   -4.3685146519471180E-006
 DIRECTION dim           25  value   -1.4828736342393801E-004
 DIRECTION dim           26  value    2.6522060231370036E-005
 DIRECTION dim           27  value    2.3378796254692144E-005
 DIRECTION dim           28  value   -1.6114198504945130E-004
 DIRECTION dim           29  value   -6.8309725604214543E-005
 DIRECTION dim           30  value    2.2402397983409839E-005
 DIRECTION dim           31  value   -3.5963696664960442E-005
 DIRECTION dim           32  value    4.0842327776889391E-005
 DIRECTION dim           33  value    1.8408905778537932E-005
 DIRECTION dim           34  value    8.6884885969479032E-005
 DIRECTION dim           35  value    4.8210531320812265E-005
 DIRECTION dim           36  value   -3.5747521815167588E-005
 DIRECTION dim           37  value   -4.4252166837024470E-005
 DIRECTION dim           38  value    1.6700706261920905E-004
 DIRECTION dim           39  value   -2.2509470989588040E-005
 DIRECTION dim           40  value    1.2803126582171915E-004
 DIRECTION dim           41  value   -1.8005295153642489E-004
 DIRECTION dim           42  value   -1.3009616715875430E-005
 DIRECTION dim           43  value    4.5127533989409530E-004
 DIRECTION dim           44  value    2.1928599042991348E-004
 DIRECTION dim           45  value    5.9974166609921234E-004
 DIRECTION dim           46  value    4.5010181382860803E-004
 DIRECTION dim           47  value   -1.3902583252244885E-003
 DIRECTION dim           48  value    5.7087338952766247E-004


  **** Conditions for a minimum have not been satisfied. However ****
  **** no lower point can be found - treat results with caution  ****
  **** unless gradient norm is small (less than 0.1)             ****


  Final energy =    -465.37975090 eV
  Final Gnorm  =       0.02941926

  Components of energy : 

--------------------------------------------------------------------------------
  Interatomic potentials     =          71.96940969 eV    
  Monopole - monopole (real) =        -280.65263771 eV    
  Monopole - monopole (recip)=        -256.69652288 eV    
  Monopole - monopole (total)=        -537.34916059 eV    
--------------------------------------------------------------------------------
  Total lattice energy       =        -465.37975090 eV    
--------------------------------------------------------------------------------
  Total lattice energy       =          -44902.0320 kJ/(mole unit cells)
--------------------------------------------------------------------------------

  Final fractional coordinates of atoms :

--------------------------------------------------------------------------------
   No.  Atomic        x           y          z          Radius
        Label       (Frac)      (Frac)     (Frac)       (Angs) 
--------------------------------------------------------------------------------
     1  O     c     0.000000    0.333330    0.800000    0.000000
     2  O     c     0.083970    0.197184    0.621316    0.000000
     3  O     c     0.497779    0.344219    0.561352    0.000000
     4  O     c     0.996154    0.527135    0.495123    0.000000
     5  O     c     0.944434    0.706135    0.200100    0.000000
     6  O     c     0.311155    0.946514    0.757184    0.000000
     7  O     c     0.647483    0.802227    0.444716    0.000000
     8  O     c     0.242895    0.074011    0.418783    0.000000
     9  O     c     0.878275    0.460437    0.987569    0.000000
    10  Sr    c     0.880543    0.060190    0.086148    0.000000
    11  Sr    c     0.885141    0.858007    0.882023    0.000000
    12  Sr    c     0.049055    0.361591    0.303297    0.000000
    13  Ti    c     0.619456    0.320004    0.476555    0.000000
    14  Ti    c     0.149364    0.131855    0.523148    0.000000
    15  Ti    c     0.180120    0.358421    0.734607    0.000000
--------------------------------------------------------------------------------

  Final Cartesian lattice vectors (Angstroms) :

        5.776848   -0.551571   -0.907290
       -0.827357    3.315217   -0.619634
       -2.268225   -1.032723   16.997361


  Final cell parameters and derivatives :

--------------------------------------------------------------------------------
       a            5.873617 Angstrom     dE/de1(xx)    -0.196395 eV/strain
       b            3.472626 Angstrom     dE/de2(yy)    -0.162921 eV/strain
       c           17.179105 Angstrom     dE/de3(zz)    -0.438782 eV/strain
       alpha      101.681954 Degrees      dE/de4(yz)    -0.071482 eV/strain
       beta       106.084097 Degrees      dE/de5(xz)     0.223147 eV/strain
       gamma      107.242310 Degrees      dE/de6(xy)    -0.096098 eV/strain
--------------------------------------------------------------------------------

  Primitive cell volume =           305.698775 Angs**3

  Density of cell =      2.990334 g/cm**3

  Non-primitive cell volume =           305.698775 Angs**3


  Final internal derivatives :

--------------------------------------------------------------------------------
   No.  Atomic          a             b             c           Radius
        Label          (eV)          (eV)          (eV)        (eV/Angs)
--------------------------------------------------------------------------------
      1 O     c       0.000000      0.000000      0.000000      0.000000
      2 O     c       0.085218      0.012427     -0.372007      0.000000
      3 O     c       0.100480      0.004686     -0.597048      0.000000
      4 O     c       0.005213      0.030488     -0.020430      0.000000
      5 O     c      -0.003372      0.019439     -0.049196      0.000000
      6 O     c       0.043679     -0.106043      0.126287      0.000000
      7 O     c      -0.038863      0.037965      0.075246      0.000000
      8 O     c      -0.006033      0.012474      0.125408      0.000000
      9 O     c       0.004783      0.013838      0.023903      0.000000
     10 Sr    c       0.025278     -0.002491     -0.121017      0.000000
     11 Sr    c       0.041024      0.005958     -0.108799      0.000000
     12 Sr    c       0.005471     -0.004556     -0.088375      0.000000
     13 Ti    c      -0.182284     -0.026859      0.766249      0.000000
     14 Ti    c       0.102393     -0.057029      0.482207      0.000000
     15 Ti    c      -0.227948      0.067179      0.375223      0.000000
--------------------------------------------------------------------------------
  Maximum abs         0.227948      0.106043      0.766249      0.000000
--------------------------------------------------------------------------------


  Time to end of optimisation =       3.2962 seconds

 Exiting ------OPTIONS------

  Peak dynamic memory used =       0.60 MB 


  Timing analysis for GULP :

--------------------------------------------------------------------------------
  Task / Subroutine                                          Time (Seconds)
--------------------------------------------------------------------------------
  Calculation of reciprocal space energy and derivatives          0.1640
  Calculation of real space energy and derivatives                3.0855
  Calculation and manipulation of Hessian matrix                  0.0002
  Calculation of matrix inversion                                 0.0009
  Global summation overhead                                       0.0010
--------------------------------------------------------------------------------
  Total CPU time                                                  3.2962
--------------------------------------------------------------------------------


  Job Finished at 13:26.42 21st February   2020                               

