********************************************************************************
*                       GENERAL UTILITY LATTICE PROGRAM                        *
*                                 Julian Gale                                  *
*                       Curtin Institute for Computation                       *
*                           Department of Chemistry                            *
*                    Curtin University, Western Australia                      *
********************************************************************************
* Version = 5.1.1 * Last modified =  25th August 2019                          *
********************************************************************************
*  optimise     - perform optimisation run                                     *
*  conp         - constant pressure calculation                                *
*  nosymmetry   - turn off symmetry after initial structure generation         *
*  full         - generate full unit cell when symmetry is removed             *
*  conjugate    - use conjugate gradients minimiser                            *
********************************************************************************
* ASE calculation                                                              *
********************************************************************************


  Job Started  at 13:26.38 21st February   2020                               

  Number of CPUs =     1


  Total number of configurations input =      1

********************************************************************************
*  Input for Configuration =   1                                               *
********************************************************************************

  Formula = O9Sr3Ti3                                                    

  Number of irreducible atoms/shells =      15


  Total number atoms/shells =      15

  Dimensionality = 3               :  Bulk   



  Cartesian lattice vectors (Angstroms) :

        6.000000    0.000000    0.000000
        0.000000    6.000000    0.000000
        0.000000    0.000000   12.000000

  Cell parameters (Angstroms/Degrees):

  a =       6.0000    alpha =  90.0000
  b =       6.0000    beta  =  90.0000
  c =      12.0000    gamma =  90.0000

  Initial cell volume =         432.000000 Angs**3

  Temperature of configuration =  0.000     K 

  Pressure of configuration =         0.000 GPa 

  Fractional coordinates of asymmetric unit :

--------------------------------------------------------------------------------
   No.  Atomic       x           y          z         Charge      Occupancy
        Label      (Frac)      (Frac)     (Frac)        (e)         (Frac)  
--------------------------------------------------------------------------------
      1 O     c    0.000000    0.333330    0.833330    -2.00000    1.000000    
      2 O     c    0.666670 *  0.666670 *  0.000000 *  -2.00000    1.000000    
      3 O     c    0.333330 *  0.666670 *  0.166670 *  -2.00000    1.000000    
      4 O     c    0.333330 *  0.000000 *  0.166670 *  -2.00000    1.000000    
      5 O     c    0.333330 *  0.333330 *  0.166670 *  -2.00000    1.000000    
      6 O     c    0.333330 *  0.333330 *  0.833330 *  -2.00000    1.000000    
      7 O     c    0.333330 *  0.000000 *  0.500000 *  -2.00000    1.000000    
      8 O     c    0.666670 *  0.000000 *  0.000000 *  -2.00000    1.000000    
      9 O     c    0.666670 *  0.000000 *  0.166670 *  -2.00000    1.000000    
     10 Sr    c    0.500000 *  0.833330 *  0.916670 *   2.00000    1.000000    
     11 Sr    c    0.166670 *  0.500000 *  0.916670 *   2.00000    1.000000    
     12 Sr    c    0.166670 *  0.833330 *  0.416670 *   2.00000    1.000000    
     13 Ti    c    0.833330 *  0.500000 *  0.416670 *   4.00000    1.000000    
     14 Ti    c    0.166670 *  0.166670 *  0.916670 *   4.00000    1.000000    
     15 Ti    c    0.833330 *  0.833330 *  0.583330 *   4.00000    1.000000    
--------------------------------------------------------------------------------



********************************************************************************
*  General input information                                                   *
********************************************************************************

  Species output for all configurations : 

--------------------------------------------------------------------------------
  Species    Type    Atomic    Atomic    Charge       Radii (Angs)     Library
                     Number     Mass       (e)     Cova   Ionic  VDW   Symbol
--------------------------------------------------------------------------------
    O        Core        8      16.00  -2.000000   0.730  0.000  1.360          
    Sr       Core       38      87.62   2.000000   1.120  0.000  1.670          
    Ti       Core       22      47.88   4.000000   1.470  0.000  2.190          
--------------------------------------------------------------------------------


  Lattice summation method               =    Ewald          (3-D)
                                         =    Parry          (2-D)
                                         =    Saunders et al (1-D)
  Accuracy factor for lattice sums       =   12.000


  Time limit = Infinity

  Maximum range for interatomic potentials =    100000.000000 Angstroms

  General interatomic potentials :

--------------------------------------------------------------------------------
Atom  Types   Potential      Parameter       Value         Units   Cutoffs(Ang)
  1     2                                                            Min /  Max 
--------------------------------------------------------------------------------
O    c Sr   c Buckingham    Buckingham A     1952.3900    eV        0.000 10.000
                            Buckingham rho  0.33685000    Ang       
                            Buckingham C     19.220000    eV*Ang^6  
--------------------------------------------------------------------------------
O    c Ti   c Buckingham    Buckingham A     4590.7279    eV        0.000 10.000
                            Buckingham rho  0.26100000    Ang       
                            Buckingham C     0.0000000    eV*Ang^6  
--------------------------------------------------------------------------------
O    c O    c Buckingham    Buckingham A     1388.7700    eV        0.000 10.000
                            Buckingham rho  0.36262000    Ang       
                            Buckingham C     175.00000    eV*Ang^6  
--------------------------------------------------------------------------------
 Calling ------OPTIONS------

********************************************************************************
*  Output for configuration   1                                                *
********************************************************************************


  Components of energy : 

--------------------------------------------------------------------------------
  Interatomic potentials     =          86.73882635 eV    
  Monopole - monopole (real) =         -15.03500613 eV    
  Monopole - monopole (recip)=        -125.05826005 eV    
  Monopole - monopole (total)=        -140.09326618 eV    
--------------------------------------------------------------------------------
  Total lattice energy       =         -53.35443983 eV    
--------------------------------------------------------------------------------
  Total lattice energy       =           -5147.8878 kJ/(mole unit cells)
--------------------------------------------------------------------------------


  Number of variables =       48

  Maximum number of calculations  =          1000
  Maximum Hessian update interval =            10
  Maximum step size               =   1.000000000
  Maximum parameter tolerance     =   0.000010000
  Maximum function  tolerance     =   0.000010000
  Maximum gradient  tolerance     =   0.001000000
  Maximum gradient  component     =   0.010000000

  Cell parameters to be optimised using strains

  Conjugate gradient optimiser to be used

  Lower half triangular hessian to be used

  Minimiser to switch to BFGS with exact hessian
  When gradient norm is less than     0.100000

  Start of bulk optimisation :

  Cycle:      0 Energy:       -53.354440  Gnorm:     31.391907  CPU:    0.006
 Perform trimming
 ALPHA BEFORE:    1.0000000000000000     
 XC BEFORE:   0.66666999999995369     
  ** Opt : line minimisation
left   ...       0.00000000     -53.35443983
centre ...       0.25000000    -118.66801073
right  ...       0.50000000    -168.59695500

left   ...       0.00000000     -53.35443983
centre ...       0.25000000    -118.66801073
right  ...       0.50000000    -168.59695500
new    ...       1.18634475    -253.88567143

__s__    ...       0.68634475

left   ...       0.25000000    -118.66801073
centre ...       0.50000000    -168.59695500
right  ...       1.18634475    -253.88567143
new    ...       1.61423926    -275.96437803

__s__    ...       0.42789451

left   ...       0.50000000    -168.59695500
centre ...       1.18634475    -253.88567143
right  ...       1.61423926    -275.96437803
new    ...       1.79588653    -278.25586204

__s__    ...       0.18164727

left   ...       1.18634475    -253.88567143
centre ...       1.61423926    -275.96437803
right  ...       1.79588653    -278.25586204
new    ...       1.80368654    -278.26112510

__s__    ...       0.00780001

 ALPHA AFTER:    1.8036865373670468     
 XC AFTER:   0.68808186804015337     
 SANITY CHECK:    1.8036865373670481     
 DIRECTION dim            1  value    1.1871169184117710E-002
 DIRECTION dim            2  value   -2.2883700459662395E-002
 DIRECTION dim            3  value   -2.3843091545488485E-002
 DIRECTION dim            4  value   -8.2238287666695099E-003
 DIRECTION dim            5  value   -3.9216727748924299E-003
 DIRECTION dim            6  value    1.9955267197757001E-002
 DIRECTION dim            7  value   -2.0237226194232769E-002
 DIRECTION dim            8  value    6.6049966713979799E-004
 DIRECTION dim            9  value    1.4197310029540061E-002
 DIRECTION dim           10  value   -7.1451370335926792E-003
 DIRECTION dim           11  value    3.2612025758721620E-003
 DIRECTION dim           12  value    1.2260873951347355E-002
 DIRECTION dim           13  value    1.4514070341848052E-002
 DIRECTION dim           14  value   -1.1148518403830682E-002
 DIRECTION dim           15  value   -3.9152042157776283E-002
 DIRECTION dim           16  value    6.0709968026708078E-003
 DIRECTION dim           17  value    3.3187647077868995E-003
 DIRECTION dim           18  value    3.6379535616036976E-002
 DIRECTION dim           19  value    1.1840325684096299E-002
 DIRECTION dim           20  value    2.1354431054224680E-002
 DIRECTION dim           21  value   -5.0376108909605075E-002
 DIRECTION dim           22  value    2.1223420581088611E-002
 DIRECTION dim           23  value    1.9940538609815412E-003
 DIRECTION dim           24  value    4.9226201647651749E-002
 DIRECTION dim           25  value   -8.1460482237406661E-003
 DIRECTION dim           26  value   -1.6911630902901088E-003
 DIRECTION dim           27  value    1.3213261012819368E-002
 DIRECTION dim           28  value   -2.7755416317822707E-004
 DIRECTION dim           29  value    2.8998364746560645E-002
 DIRECTION dim           30  value    6.6904221405136688E-002
 DIRECTION dim           31  value    5.0356545816174231E-003
 DIRECTION dim           32  value   -9.8794437203281117E-004
 DIRECTION dim           33  value   -6.3023137286287195E-002
 DIRECTION dim           34  value   -6.2181722875826627E-003
 DIRECTION dim           35  value   -1.4502076601907344E-002
 DIRECTION dim           36  value   -8.8424783221529787E-002
 DIRECTION dim           37  value   -2.9864791676973020E-004
 DIRECTION dim           38  value   -5.2266042596527526E-003
 DIRECTION dim           39  value    6.4763041084671832E-002
 DIRECTION dim           40  value   -5.0249392620509720E-003
 DIRECTION dim           41  value    1.1961316106363374E-002
 DIRECTION dim           42  value    2.9300010253938188E-002
 DIRECTION dim           43  value    2.3483098293464778E-002
 DIRECTION dim           44  value    5.4010485140655422E-002
 DIRECTION dim           45  value   -3.3327403219015277E-002
 DIRECTION dim           46  value    1.0626043912339725E-002
 DIRECTION dim           47  value   -3.6224909656252784E-003
 DIRECTION dim           48  value    1.7212110869048096E-003
  Cycle:      1 Energy:      -278.261125  Gnorm:      9.633754  CPU:    0.015
 Perform trimming
 ALPHA BEFORE:    1.8036865373670468     
 XC BEFORE:   0.68808186804015337     
  ** Opt : line minimisation
left   ...       0.00000000    -278.26112510
centre ...       0.45092163    -313.86530737
right  ...       0.90184327    -207.04532650

left   ...       0.00000000    -278.26112510
centre ...       0.45092163    -313.86530737
right  ...       0.90184327    -207.04532650
new    ...       0.33818534    -311.31476031

__s__    ...      -0.56365793

left   ...       0.33818534    -311.31476031
centre ...       0.45092163    -313.86530737
right  ...       0.90184327    -207.04532650
new    ...       0.41912264    -313.89304184

__s__    ...       0.08093730

left   ...       0.33818534    -311.31476031
centre ...       0.41912264    -313.89304184
right  ...       0.45092163    -313.86530737
new    ...       0.43351994    -313.96528295

__s__    ...       0.01439730

 ALPHA AFTER:   0.43351993591050947     
 XC AFTER:   0.70382082325980366     
 SANITY CHECK:   0.43351993591051130     
 DIRECTION dim            1  value    3.6305032170191098E-002
 DIRECTION dim            2  value   -3.3935556592330378E-002
 DIRECTION dim            3  value    5.2876226848080861E-002
 DIRECTION dim            4  value   -2.7660270467552532E-003
 DIRECTION dim            5  value   -2.9431496941956275E-002
 DIRECTION dim            6  value   -3.3290403396026888E-002
 DIRECTION dim            7  value   -4.6029931151923803E-002
 DIRECTION dim            8  value    4.2316404855900228E-002
 DIRECTION dim            9  value  -0.15429252289360770     
 DIRECTION dim           10  value   -4.0048130577740815E-002
 DIRECTION dim           11  value   -1.0919796443834806E-002
 DIRECTION dim           12  value   -6.4199215283714695E-002
 DIRECTION dim           13  value    1.8430133277486913E-002
 DIRECTION dim           14  value    6.5732568032789325E-003
 DIRECTION dim           15  value    5.1286215850767100E-003
 DIRECTION dim           16  value   -2.0176276036436527E-004
 DIRECTION dim           17  value   -3.4110227210006921E-002
 DIRECTION dim           18  value   -2.4410723876452017E-002
 DIRECTION dim           19  value    2.9100877619579055E-002
 DIRECTION dim           20  value    1.2097466935316704E-002
 DIRECTION dim           21  value    3.1398532731487438E-003
 DIRECTION dim           22  value    5.6791763642533376E-002
 DIRECTION dim           23  value    2.6813313116145379E-003
 DIRECTION dim           24  value    3.0996024859637056E-002
 DIRECTION dim           25  value   -2.2566563872232662E-002
 DIRECTION dim           26  value    5.2327584890739520E-003
 DIRECTION dim           27  value   -8.2191735066972308E-003
 DIRECTION dim           28  value    9.5871856774711519E-003
 DIRECTION dim           29  value    2.0812342151133784E-002
 DIRECTION dim           30  value   -4.7573308259839062E-002
 DIRECTION dim           31  value   -5.0753849936796772E-003
 DIRECTION dim           32  value    2.4732684258456383E-002
 DIRECTION dim           33  value   0.10683745772549945     
 DIRECTION dim           34  value   -5.2133778532309952E-002
 DIRECTION dim           35  value   -2.3523866839697691E-002
 DIRECTION dim           36  value   -3.8288385469855135E-002
 DIRECTION dim           37  value    3.5596706580455148E-002
 DIRECTION dim           38  value   -1.1719975038287771E-002
 DIRECTION dim           39  value    1.4722237481904933E-002
 DIRECTION dim           40  value   -1.4419242535648703E-002
 DIRECTION dim           41  value    3.0470798187781992E-002
 DIRECTION dim           42  value    8.1644984355445219E-002
 DIRECTION dim           43  value   -4.4534292850661093E-002
 DIRECTION dim           44  value    6.0420825145113585E-002
 DIRECTION dim           45  value   -4.8584848739748672E-002
 DIRECTION dim           46  value    1.7935811660961684E-002
 DIRECTION dim           47  value   -4.9940892662918353E-002
 DIRECTION dim           48  value   -2.8430480678026454E-004
  Cycle:      2 Energy:      -313.965283  Gnorm:     10.323993  CPU:    0.021
 Perform trimming
 ALPHA BEFORE:   0.43351993591050947     
 XC BEFORE:   0.70382082325980366     
  ** Opt : line minimisation
left   ...       0.00000000    -313.96528295
centre ...       0.10837998    -328.49618483
right  ...       0.21675997    -336.95913787

left   ...       0.00000000    -313.96528295
centre ...       0.10837998    -328.49618483
right  ...       0.21675997    -336.95913787
new    ...       0.31372727    -342.32922179

__s__    ...       0.09696730

left   ...       0.10837998    -328.49618483
centre ...       0.21675997    -336.95913787
right  ...       0.31372727    -342.32922179
new    ...       0.51567117    -348.64034353

__s__    ...       0.20194390

left   ...       0.21675997    -336.95913787
centre ...       0.31372727    -342.32922179
right  ...       0.51567117    -348.64034353
new    ...       0.60827795    -347.11950994

__s__    ...       0.09260678

left   ...       0.31372727    -342.32922179
centre ...       0.51567117    -348.64034353
right  ...       0.60827795    -347.11950994
new    ...       0.51124229    -348.61199333

__s__    ...      -0.09703565

left   ...       0.51124229    -348.61199333
centre ...       0.51567117    -348.64034353
right  ...       0.60827795    -347.11950994
new    ...       0.52706422    -348.67815793

__s__    ...       0.01582193

 ALPHA AFTER:   0.52706422453083079     
 XC AFTER:   0.73309831896244826     
 SANITY CHECK:   0.52706422453083246     
 DIRECTION dim            1  value    5.5548250744406023E-002
 DIRECTION dim            2  value   -3.7178648251412955E-002
 DIRECTION dim            3  value   0.10253609832150302     
 DIRECTION dim            4  value   -1.3676757816466630E-002
 DIRECTION dim            5  value    3.1435903977828231E-003
 DIRECTION dim            6  value    2.6781848317134756E-002
 DIRECTION dim            7  value   -1.2663732650097822E-002
 DIRECTION dim            8  value  -0.10588212920666289     
 DIRECTION dim            9  value   -4.8862706179146915E-003
 DIRECTION dim           10  value   -7.1010564199082138E-002
 DIRECTION dim           11  value   -3.3676083933206653E-002
 DIRECTION dim           12  value   -9.3258863730767153E-002
 DIRECTION dim           13  value    3.5425894246386883E-002
 DIRECTION dim           14  value    1.2705498082609316E-002
 DIRECTION dim           15  value   -1.6440667672514811E-003
 DIRECTION dim           16  value   -1.8099613002894367E-003
 DIRECTION dim           17  value   -6.6976849161072008E-002
 DIRECTION dim           18  value   -3.7875258414754968E-002
 DIRECTION dim           19  value    5.1425608707371381E-002
 DIRECTION dim           20  value   -9.6949343079804524E-003
 DIRECTION dim           21  value   -1.6798771855187130E-002
 DIRECTION dim           22  value    8.4029830924018445E-002
 DIRECTION dim           23  value    1.0131367686270277E-002
 DIRECTION dim           24  value    5.7625384289190312E-002
 DIRECTION dim           25  value   -1.8892783922718571E-002
 DIRECTION dim           26  value    2.3492111446635588E-003
 DIRECTION dim           27  value    5.4912874855438474E-003
 DIRECTION dim           28  value    7.9233900473543745E-003
 DIRECTION dim           29  value    2.3630920676703668E-002
 DIRECTION dim           30  value   -9.2933145729835534E-002
 DIRECTION dim           31  value    2.2639489336049222E-002
 DIRECTION dim           32  value    4.6843384180249074E-002
 DIRECTION dim           33  value    7.1459141660339009E-002
 DIRECTION dim           34  value   -9.6005668796478080E-002
 DIRECTION dim           35  value   -3.8172833387397936E-002
 DIRECTION dim           36  value  -0.10910613664415038     
 DIRECTION dim           37  value   -4.8794860576269411E-003
 DIRECTION dim           38  value   0.12361786491197414     
 DIRECTION dim           39  value  -0.17719931731944311     
 DIRECTION dim           40  value   -3.1146222236792188E-002
 DIRECTION dim           41  value    6.7164322130033732E-002
 DIRECTION dim           42  value   0.14457870789982172     
 DIRECTION dim           43  value   -7.6671361877802491E-002
 DIRECTION dim           44  value    8.0398891666132302E-002
 DIRECTION dim           45  value   -7.7983865979253483E-002
 DIRECTION dim           46  value    1.3128803780864130E-002
 DIRECTION dim           47  value   -6.7279221860993096E-002
 DIRECTION dim           48  value   -7.5446596131982678E-003
  Cycle:      3 Energy:      -348.678158  Gnorm:      9.744716  CPU:    0.028
 ALPHA BEFORE:   0.52706422453083079     
 XC BEFORE:   0.73309831896244826     
  ** Opt : line minimisation
left   ...       0.00000000    -348.67815793
centre ...       0.13176606    -366.24553655
right  ...       0.26353211    -289.68166079

left   ...       0.00000000    -348.67815793
centre ...       0.13176606    -366.24553655
right  ...       0.26353211    -289.68166079
new    ...       0.09047405    -364.53473298

__s__    ...      -0.17305806

left   ...       0.09047405    -364.53473298
centre ...       0.13176606    -366.24553655
right  ...       0.26353211    -289.68166079
new    ...       0.11687927    -366.27877170

__s__    ...       0.02640521

left   ...       0.09047405    -364.53473298
centre ...       0.11687927    -366.27877170
right  ...       0.13176606    -366.24553655
new    ...       0.12364762    -366.36882043

__s__    ...       0.00676836

 ALPHA AFTER:   0.12364762186028617     
 XC AFTER:   0.74184044361904700     
 SANITY CHECK:   0.12364762186028433     
 DIRECTION dim            1  value    7.0701923135059602E-002
 DIRECTION dim            2  value   -7.6716887032514447E-002
 DIRECTION dim            3  value   0.12150192402804043     
 DIRECTION dim            4  value   -6.5039328351714880E-003
 DIRECTION dim            5  value   -5.6400283916039226E-002
 DIRECTION dim            6  value    2.7391251370147082E-002
 DIRECTION dim            7  value   -3.1165595479128796E-002
 DIRECTION dim            8  value   -7.9124874825553249E-002
 DIRECTION dim            9  value  -0.19279421040510289     
 DIRECTION dim           10  value   -8.9366922880312963E-002
 DIRECTION dim           11  value   -2.6054915886939388E-002
 DIRECTION dim           12  value  -0.26780163692801656     
 DIRECTION dim           13  value    3.2456172150022423E-002
 DIRECTION dim           14  value    5.5085928078718906E-003
 DIRECTION dim           15  value    9.4393912695517557E-002
 DIRECTION dim           16  value    1.9962097245660011E-002
 DIRECTION dim           17  value   -7.6558236002189972E-002
 DIRECTION dim           18  value   0.12840808686315525     
 DIRECTION dim           19  value    9.6042511609837553E-002
 DIRECTION dim           20  value   -8.6279710570656254E-002
 DIRECTION dim           21  value  -0.15626240816074569     
 DIRECTION dim           22  value   0.10786969700135784     
 DIRECTION dim           23  value    3.3378456292975700E-002
 DIRECTION dim           24  value    7.0798037861852930E-002
 DIRECTION dim           25  value   -1.5411478957124481E-002
 DIRECTION dim           26  value    6.3044959154477855E-003
 DIRECTION dim           27  value   0.13482960877759184     
 DIRECTION dim           28  value    1.0117998889076427E-004
 DIRECTION dim           29  value    4.8132107299795134E-002
 DIRECTION dim           30  value   -1.8605660966820800E-002
 DIRECTION dim           31  value    1.5667144623539762E-002
 DIRECTION dim           32  value    4.7597131975340684E-002
 DIRECTION dim           33  value   -7.6281233209308186E-002
 DIRECTION dim           34  value  -0.14209168541322836     
 DIRECTION dim           35  value   -2.6771686590372171E-002
 DIRECTION dim           36  value  -0.11658850483015781     
 DIRECTION dim           37  value    1.7811367994705479E-002
 DIRECTION dim           38  value   0.12410738756907817     
 DIRECTION dim           39  value   -8.4755817056784435E-002
 DIRECTION dim           40  value   -6.8634753280071847E-002
 DIRECTION dim           41  value   0.16486534215549306     
 DIRECTION dim           42  value   0.13638094523388344     
 DIRECTION dim           43  value   -9.4959606465884222E-002
 DIRECTION dim           44  value    9.0174153083257366E-002
 DIRECTION dim           45  value  -0.18869903690500980     
 DIRECTION dim           46  value    2.7913751992378198E-002
 DIRECTION dim           47  value   -7.6349985867941256E-002
 DIRECTION dim           48  value    8.0339024085337562E-003
  Cycle:      4 Energy:      -366.368820  Gnorm:      9.373926  CPU:    0.032
 ALPHA BEFORE:   0.12364762186028617     
 XC BEFORE:   0.74184044361904700     
  ** Opt : line minimisation
left   ...       0.00000000    -366.36882043
centre ...       0.03091191    -372.06395627
right  ...       0.06182381    -376.60536376

left   ...       0.00000000    -366.36882043
centre ...       0.03091191    -372.06395627
right  ...       0.06182381    -376.60536376
new    ...       0.16804603    -383.45823040

__s__    ...       0.10622222

left   ...       0.03091191    -372.06395627
centre ...       0.06182381    -376.60536376
right  ...       0.16804603    -383.45823040
new    ...       0.16861892    -383.45951421

__s__    ...       0.00057288

 ALPHA AFTER:   0.16861891777557195     
 XC AFTER:   0.74986105001008152     
 SANITY CHECK:   0.16861891777557286     
 DIRECTION dim            1  value    4.7566468204414229E-002
 DIRECTION dim            2  value   -1.3519996109794052E-002
 DIRECTION dim            3  value   -4.8086913918864896E-002
 DIRECTION dim            4  value    9.9749642612801271E-003
 DIRECTION dim            5  value   -8.6934093974185445E-002
 DIRECTION dim            6  value    4.2237573718718630E-003
 DIRECTION dim            7  value   -3.6143408966763546E-002
 DIRECTION dim            8  value   -5.5479984177506866E-003
 DIRECTION dim            9  value  -0.24752600777494696     
 DIRECTION dim           10  value   -3.4089426291947889E-002
 DIRECTION dim           11  value    2.1082732263114953E-002
 DIRECTION dim           12  value  -0.15037274786129762     
 DIRECTION dim           13  value    7.7494867161912260E-003
 DIRECTION dim           14  value   -6.7769965684279536E-003
 DIRECTION dim           15  value   0.15372258340460804     
 DIRECTION dim           16  value    2.2962243041949024E-002
 DIRECTION dim           17  value   -5.3998661425952381E-002
 DIRECTION dim           18  value   0.18905709943059612     
 DIRECTION dim           19  value    4.3683368172322046E-002
 DIRECTION dim           20  value   -4.1003345415105225E-002
 DIRECTION dim           21  value    3.0778879922936930E-002
 DIRECTION dim           22  value    6.7450189929610327E-002
 DIRECTION dim           23  value    3.9678378113606250E-002
 DIRECTION dim           24  value    3.0427009571841974E-002
 DIRECTION dim           25  value    5.8374896808179588E-003
 DIRECTION dim           26  value    9.9694450859405641E-003
 DIRECTION dim           27  value   0.16660647721050659     
 DIRECTION dim           28  value   -1.3176236329153324E-002
 DIRECTION dim           29  value    5.7066393899878512E-002
 DIRECTION dim           30  value    4.7686449119605817E-002
 DIRECTION dim           31  value    8.2285549351892688E-003
 DIRECTION dim           32  value    3.0461485839722205E-002
 DIRECTION dim           33  value  -0.12794064450585579     
 DIRECTION dim           34  value  -0.11276311747975909     
 DIRECTION dim           35  value   -6.0968152311236992E-002
 DIRECTION dim           36  value    8.5998895415488788E-002
 DIRECTION dim           37  value    6.3788333552593501E-002
 DIRECTION dim           38  value   -9.4712338009594610E-003
 DIRECTION dim           39  value   -5.2180956432955158E-002
 DIRECTION dim           40  value   -3.0223242546643575E-002
 DIRECTION dim           41  value    9.4803434298770126E-002
 DIRECTION dim           42  value  -0.18178922161853125     
 DIRECTION dim           43  value   -4.1783997651022441E-002
 DIRECTION dim           44  value    7.7405449994882594E-002
 DIRECTION dim           45  value  -0.11699602162133561     
 DIRECTION dim           46  value    2.7851609603616313E-002
 DIRECTION dim           47  value   -3.9654292018674923E-002
 DIRECTION dim           48  value    8.6253956861417763E-003
  Cycle:      5 Energy:      -383.459514  Gnorm:     10.122750  CPU:    0.037
 ALPHA BEFORE:   0.16861891777557195     
 XC BEFORE:   0.74986105001008152     
  ** Opt : line minimisation
left   ...       0.00000000    -383.45951421
centre ...       0.04215473    -390.59663227
right  ...       0.08430946    -393.66758737

left   ...       0.00000000    -383.45951421
centre ...       0.04215473    -390.59663227
right  ...       0.08430946    -393.66758737
new    ...       0.09506930    -394.00163825

__s__    ...       0.01075984

 ALPHA AFTER:    9.5069303273707773E-002
 XC AFTER:   0.75392805487803249     
 SANITY CHECK:    9.5069303273707523E-002
 DIRECTION dim            1  value    4.2779369658804994E-002
 DIRECTION dim            2  value   -3.9721484183927534E-002
 DIRECTION dim            3  value    5.0268483268428241E-003
 DIRECTION dim            4  value    3.5140694215845467E-002
 DIRECTION dim            5  value  -0.12685450677837357     
 DIRECTION dim            6  value    2.0902027573134307E-002
 DIRECTION dim            7  value  -0.13417673644857761     
 DIRECTION dim            8  value    8.6694342979906039E-002
 DIRECTION dim            9  value  -0.26087378643042225     
 DIRECTION dim           10  value    6.2092550449045908E-003
 DIRECTION dim           11  value   0.11475380663708375     
 DIRECTION dim           12  value   0.13395368685071155     
 DIRECTION dim           13  value    1.1234419557824582E-002
 DIRECTION dim           14  value   -2.1704273055904742E-002
 DIRECTION dim           15  value   0.20302887518580470     
 DIRECTION dim           16  value    3.9743447777875855E-002
 DIRECTION dim           17  value   -7.6163598411557579E-002
 DIRECTION dim           18  value   0.25525064096409389     
 DIRECTION dim           19  value    6.6425185839766879E-002
 DIRECTION dim           20  value  -0.10233731604880561     
 DIRECTION dim           21  value   -4.0084851062306311E-002
 DIRECTION dim           22  value    7.5836498477966099E-002
 DIRECTION dim           23  value    6.7836695082079873E-002
 DIRECTION dim           24  value    3.7149330594405366E-002
 DIRECTION dim           25  value   0.11453115801179074     
 DIRECTION dim           26  value   -4.4536341115062411E-002
 DIRECTION dim           27  value   0.13985100228393568     
 DIRECTION dim           28  value   -3.6886597377110711E-002
 DIRECTION dim           29  value    9.0657801224540174E-002
 DIRECTION dim           30  value    6.9073029964417096E-002
 DIRECTION dim           31  value    1.5759556411162331E-002
 DIRECTION dim           32  value    4.3377979143349156E-002
 DIRECTION dim           33  value  -0.16261850989334789     
 DIRECTION dim           34  value  -0.14581606420308260     
 DIRECTION dim           35  value   -5.8216058943085819E-002
 DIRECTION dim           36  value    4.2768184447420594E-002
 DIRECTION dim           37  value   0.11504903511424966     
 DIRECTION dim           38  value  -0.16422934872868092     
 DIRECTION dim           39  value  -0.26754938447416976     
 DIRECTION dim           40  value   -7.4133150184179292E-002
 DIRECTION dim           41  value   0.16883267644007549     
 DIRECTION dim           42  value  -0.21011019862075134     
 DIRECTION dim           43  value   -3.7909212347881666E-002
 DIRECTION dim           44  value    9.8159008022014424E-002
 DIRECTION dim           45  value  -0.12181599440929941     
 DIRECTION dim           46  value    5.6915566344141508E-002
 DIRECTION dim           47  value   -3.4547228543741322E-002
 DIRECTION dim           48  value    1.7154533367960204E-003
  Cycle:      6 Energy:      -394.001638  Gnorm:      7.875622  CPU:    0.040
 ALPHA BEFORE:    9.5069303273707773E-002
 XC BEFORE:   0.75392805487803249     
  ** Opt : line minimisation
left   ...       0.00000000    -394.00163825
centre ...       0.02376733    -397.46787865
right  ...       0.04753465    -400.54092754

left   ...       0.00000000    -394.00163825
centre ...       0.02376733    -397.46787865
right  ...       0.04753465    -400.54092754
new    ...       0.22140818    -409.00340274

__s__    ...       0.17387353

left   ...       0.02376733    -397.46787865
centre ...       0.04753465    -400.54092754
right  ...       0.22140818    -409.00340274
new    ...       0.19412419    -409.59728572

__s__    ...      -0.02728400

left   ...       0.04753465    -400.54092754
centre ...       0.19412419    -409.59728572
right  ...       0.22140818    -409.00340274
new    ...       0.18511635    -409.60933571

__s__    ...      -0.00900783

 ALPHA AFTER:   0.18511635336309865     
 XC AFTER:   0.75438316490259694     
 SANITY CHECK:   0.18511635336308893     
 DIRECTION dim            1  value    2.4585079399861848E-003
 DIRECTION dim            2  value   -3.8955407392511555E-002
 DIRECTION dim            3  value    8.6104396777066189E-002
 DIRECTION dim            4  value    5.0347032588351312E-002
 DIRECTION dim            5  value   -5.8827568124435049E-002
 DIRECTION dim            6  value    4.7806031641589093E-002
 DIRECTION dim            7  value  -0.15547955927104345     
 DIRECTION dim            8  value   0.13170752164750896     
 DIRECTION dim            9  value  -0.14198356332644191     
 DIRECTION dim           10  value    2.5435573659156926E-002
 DIRECTION dim           11  value    1.9872378847633224E-002
 DIRECTION dim           12  value    7.6446411121429150E-002
 DIRECTION dim           13  value    7.0070349387541128E-002
 DIRECTION dim           14  value    5.6135375775570491E-003
 DIRECTION dim           15  value    1.5530613742251176E-002
 DIRECTION dim           16  value    4.1963745810169012E-002
 DIRECTION dim           17  value   -3.9940344474216689E-002
 DIRECTION dim           18  value   0.14940915128115062     
 DIRECTION dim           19  value    4.6988259561795226E-002
 DIRECTION dim           20  value   -9.9038134418971330E-002
 DIRECTION dim           21  value  -0.12971252515330411     
 DIRECTION dim           22  value    3.2236744601867443E-002
 DIRECTION dim           23  value    5.3776470347273814E-002
 DIRECTION dim           24  value    3.4047316416157929E-002
 DIRECTION dim           25  value   0.17114477422615787     
 DIRECTION dim           26  value   -8.5090453336254770E-002
 DIRECTION dim           27  value    4.5916747579547224E-002
 DIRECTION dim           28  value   -4.3723378013837008E-002
 DIRECTION dim           29  value    4.5622414235947081E-002
 DIRECTION dim           30  value    3.3984487280896432E-002
 DIRECTION dim           31  value    1.1341837013122965E-002
 DIRECTION dim           32  value    2.8471692018687624E-002
 DIRECTION dim           33  value   -9.3115327045337828E-002
 DIRECTION dim           34  value   -9.1928966970465972E-002
 DIRECTION dim           35  value   -2.2816601201153780E-002
 DIRECTION dim           36  value   -7.5966446716605684E-002
 DIRECTION dim           37  value    8.0032977813813078E-002
 DIRECTION dim           38  value  -0.13698137375067065     
 DIRECTION dim           39  value    8.0848093445519950E-002
 DIRECTION dim           40  value   -8.8893430172015606E-002
 DIRECTION dim           41  value   0.12528512917427620     
 DIRECTION dim           42  value   -5.1699391682676003E-002
 DIRECTION dim           43  value   -5.2645969687735768E-003
 DIRECTION dim           44  value    5.4419039523993504E-002
 DIRECTION dim           45  value   -8.9944625224381222E-002
 DIRECTION dim           46  value    2.7749077805556882E-002
 DIRECTION dim           47  value   -1.3661871900107696E-002
 DIRECTION dim           48  value   -1.0504701384890618E-002
  Cycle:      7 Energy:      -409.609336  Gnorm:      5.169000  CPU:    0.046
 ALPHA BEFORE:   0.18511635336309865     
 XC BEFORE:   0.75438316490259694     
  ** Opt : line minimisation
left   ...       0.00000000    -409.60933571
centre ...       0.04627909    -412.03805314
right  ...       0.09255818    -413.59352403

left   ...       0.00000000    -409.60933571
centre ...       0.04627909    -412.03805314
right  ...       0.09255818    -413.59352403
new    ...       0.15185328    -414.57555438

__s__    ...       0.05929511

left   ...       0.04627909    -412.03805314
centre ...       0.09255818    -413.59352403
right  ...       0.15185328    -414.57555438
new    ...       0.17348442    -414.70248329

__s__    ...       0.02163114

 ALPHA AFTER:   0.17348442471467709     
 XC AFTER:   0.75513045422494607     
 SANITY CHECK:   0.17348442471467321     
 DIRECTION dim            1  value    4.3075297599665524E-003
 DIRECTION dim            2  value    6.8707425601952192E-003
 DIRECTION dim            3  value    4.8610844576326695E-002
 DIRECTION dim            4  value    6.4438405224678863E-002
 DIRECTION dim            5  value   -4.9305670349504803E-003
 DIRECTION dim            6  value    4.1875783203684257E-002
 DIRECTION dim            7  value   -7.7910361169790360E-002
 DIRECTION dim            8  value    2.9760134998897847E-002
 DIRECTION dim            9  value   -7.7758744486382717E-002
 DIRECTION dim           10  value    4.7386165762972179E-002
 DIRECTION dim           11  value   -3.6446996467753484E-002
 DIRECTION dim           12  value    3.5327369864255442E-002
 DIRECTION dim           13  value    6.1630170763953815E-002
 DIRECTION dim           14  value   -1.6265300428499538E-002
 DIRECTION dim           15  value    8.9169196801848691E-003
 DIRECTION dim           16  value    5.4745171751645699E-002
 DIRECTION dim           17  value   -1.3659854085647568E-002
 DIRECTION dim           18  value    8.7122355528878440E-002
 DIRECTION dim           19  value    1.9606423555937218E-002
 DIRECTION dim           20  value   -7.2581575640596127E-002
 DIRECTION dim           21  value    3.8630258883953203E-002
 DIRECTION dim           22  value    1.0439315009032522E-002
 DIRECTION dim           23  value    4.3039792297014656E-002
 DIRECTION dim           24  value    1.8024934200196973E-002
 DIRECTION dim           25  value   0.12044110717815223     
 DIRECTION dim           26  value   -3.7727692901246244E-002
 DIRECTION dim           27  value    2.8258218357415398E-002
 DIRECTION dim           28  value   -4.9504946839789038E-002
 DIRECTION dim           29  value    1.0767024539165476E-002
 DIRECTION dim           30  value   -6.4356487090586056E-003
 DIRECTION dim           31  value    4.3813434491917196E-003
 DIRECTION dim           32  value    2.0065831007344753E-002
 DIRECTION dim           33  value   -4.1723167642476869E-002
 DIRECTION dim           34  value   -9.5849080756732374E-002
 DIRECTION dim           35  value   -5.8269542798959191E-002
 DIRECTION dim           36  value   -1.7886844608758397E-002
 DIRECTION dim           37  value    2.5135616551606468E-002
 DIRECTION dim           38  value    3.0587849480328042E-002
 DIRECTION dim           39  value    5.2667246023811079E-002
 DIRECTION dim           40  value   -8.8723286888970382E-002
 DIRECTION dim           41  value    8.2624048601558642E-002
 DIRECTION dim           42  value  -0.16140600408746419     
 DIRECTION dim           43  value   -2.9615108859004639E-002
 DIRECTION dim           44  value    3.1529602996101844E-002
 DIRECTION dim           45  value   -4.0748045169589325E-002
 DIRECTION dim           46  value    7.9480028484043910E-003
 DIRECTION dim           47  value   -8.6929716564985039E-004
 DIRECTION dim           48  value   -1.1067631104034470E-003
  Cycle:      8 Energy:      -414.702483  Gnorm:      5.432087  CPU:    0.050
 ALPHA BEFORE:   0.17348442471467709     
 XC BEFORE:   0.75513045422494607     
  ** Opt : line minimisation
left   ...       0.00000000    -414.70248329
centre ...       0.04337111    -417.53902813
right  ...       0.08674221    -419.85590721

left   ...       0.00000000    -414.70248329
centre ...       0.04337111    -417.53902813
right  ...       0.08674221    -419.85590721
new    ...       0.25842251    -424.31186834

__s__    ...       0.17168030

left   ...       0.04337111    -417.53902813
centre ...       0.08674221    -419.85590721
right  ...       0.25842251    -424.31186834
new    ...       0.27419682    -424.35968547

__s__    ...       0.01577431

 ALPHA AFTER:   0.27419681763664078     
 XC AFTER:   0.75824265802167168     
 SANITY CHECK:   0.27419681763664355     
 DIRECTION dim            1  value    1.1350254986729272E-002
 DIRECTION dim            2  value    1.4086243287457393E-002
 DIRECTION dim            3  value    6.6455822398904602E-002
 DIRECTION dim            4  value   0.10251123679817428     
 DIRECTION dim            5  value    1.1588291172610675E-002
 DIRECTION dim            6  value    4.7533936620212235E-002
 DIRECTION dim            7  value   -6.1678464956316854E-002
 DIRECTION dim            8  value   -5.3919234494212986E-002
 DIRECTION dim            9  value   -3.9618412987211825E-002
 DIRECTION dim           10  value    9.0532902731501080E-002
 DIRECTION dim           11  value   -6.6263290310169448E-002
 DIRECTION dim           12  value    4.6038654174444194E-002
 DIRECTION dim           13  value    8.0865292566185243E-002
 DIRECTION dim           14  value   -3.2352044283043169E-002
 DIRECTION dim           15  value    2.3091584565899392E-002
 DIRECTION dim           16  value    9.9241602857047279E-002
 DIRECTION dim           17  value   -3.0053589472060077E-005
 DIRECTION dim           18  value    6.3843595500467754E-002
 DIRECTION dim           19  value    2.0857892831260980E-002
 DIRECTION dim           20  value   -9.6462773154156953E-002
 DIRECTION dim           21  value   -5.6886110646603892E-002
 DIRECTION dim           22  value    1.5490663556704583E-003
 DIRECTION dim           23  value    6.0793015360916490E-002
 DIRECTION dim           24  value    3.0146844173287109E-002
 DIRECTION dim           25  value   0.13725026326877957     
 DIRECTION dim           26  value   -1.2143592824349965E-002
 DIRECTION dim           27  value    1.8513938767892982E-002
 DIRECTION dim           28  value   -7.4556070681162087E-002
 DIRECTION dim           29  value    6.1773314862799454E-003
 DIRECTION dim           30  value   -3.1753835022293939E-002
 DIRECTION dim           31  value    7.4204491052750829E-004
 DIRECTION dim           32  value    2.2180254174681075E-002
 DIRECTION dim           33  value   -4.1184971931975893E-002
 DIRECTION dim           34  value  -0.15057348551785468     
 DIRECTION dim           35  value   -9.4301032179912356E-002
 DIRECTION dim           36  value   -4.9411818894563239E-003
 DIRECTION dim           37  value    9.0977710716228337E-003
 DIRECTION dim           38  value   0.13454067968044159     
 DIRECTION dim           39  value   -8.6258781280575056E-003
 DIRECTION dim           40  value  -0.14839698493577180     
 DIRECTION dim           41  value   0.10251861248189229     
 DIRECTION dim           42  value   -5.1000997988642174E-002
 DIRECTION dim           43  value   -6.2218362322578047E-002
 DIRECTION dim           44  value    4.2443792218555550E-002
 DIRECTION dim           45  value   -7.6052609666021884E-002
 DIRECTION dim           46  value    3.2598188993926934E-004
 DIRECTION dim           47  value    1.0074160657193356E-002
 DIRECTION dim           48  value    4.5487769750914616E-003
  Cycle:      9 Energy:      -424.359685  Gnorm:      5.549823  CPU:    0.055
 ALPHA BEFORE:   0.27419681763664078     
 XC BEFORE:   0.75824265802167168     
  ** Opt : line minimisation
left   ...       0.00000000    -424.35968547
centre ...       0.06854920    -428.44210897
right  ...       0.13709841    -430.48089718

left   ...       0.00000000    -424.35968547
centre ...       0.06854920    -428.44210897
right  ...       0.13709841    -430.48089718
new    ...       0.17121043    -430.46865990

__s__    ...       0.03411202

 ALPHA AFTER:   0.13709840881832039     
 XC AFTER:   0.75803550451368462     
 SANITY CHECK:   0.13709840881827443     
 DIRECTION dim            1  value   -1.5109840425766080E-003
 DIRECTION dim            2  value   -6.9305822083267632E-002
 DIRECTION dim            3  value    4.0291095083476079E-002
 DIRECTION dim            4  value    2.6273403469982529E-002
 DIRECTION dim            5  value   -1.1117858080758639E-002
 DIRECTION dim            6  value   -1.6868306368854398E-002
 DIRECTION dim            7  value    3.3462848488362930E-002
 DIRECTION dim            8  value    2.4175025340584810E-002
 DIRECTION dim            9  value    2.7364180652359835E-002
 DIRECTION dim           10  value    5.4214099533133657E-002
 DIRECTION dim           11  value    3.2413032236384243E-003
 DIRECTION dim           12  value    1.9459135890833656E-002
 DIRECTION dim           13  value    4.1264535743584602E-002
 DIRECTION dim           14  value    9.1269565158358691E-003
 DIRECTION dim           15  value   -1.3265192323141599E-002
 DIRECTION dim           16  value    3.8301703111664850E-002
 DIRECTION dim           17  value    2.7098226785747869E-002
 DIRECTION dim           18  value   -6.2275663485983616E-002
 DIRECTION dim           19  value   -2.1574431397487410E-003
 DIRECTION dim           20  value    5.2867307437920201E-003
 DIRECTION dim           21  value   -8.1408661137817334E-002
 DIRECTION dim           22  value   -1.5024041849329817E-002
 DIRECTION dim           23  value    2.4634142600121794E-002
 DIRECTION dim           24  value    1.1488188998382448E-002
 DIRECTION dim           25  value   -2.1963377301828469E-003
 DIRECTION dim           26  value    4.3912748090049580E-002
 DIRECTION dim           27  value   -1.6205848495681508E-002
 DIRECTION dim           28  value   -1.8925091565357856E-002
 DIRECTION dim           29  value    2.5663791140623837E-002
 DIRECTION dim           30  value   -1.4522703569211716E-002
 DIRECTION dim           31  value   -5.9725454622491809E-003
 DIRECTION dim           32  value   -3.6474878946106955E-003
 DIRECTION dim           33  value   -2.5324947427808873E-003
 DIRECTION dim           34  value   -3.6160050022891625E-002
 DIRECTION dim           35  value    3.4144784077124062E-002
 DIRECTION dim           36  value    7.8477367030100210E-003
 DIRECTION dim           37  value   -2.0296582858474826E-002
 DIRECTION dim           38  value  -0.12172428734353948     
 DIRECTION dim           39  value    7.2948983698265836E-004
 DIRECTION dim           40  value   -4.7523289412065191E-002
 DIRECTION dim           41  value   -1.8587111406914911E-002
 DIRECTION dim           42  value   0.12760686270445784     
 DIRECTION dim           43  value   -2.8442611361681074E-003
 DIRECTION dim           44  value   -1.9490644402024474E-002
 DIRECTION dim           45  value   -3.4197130103771053E-002
 DIRECTION dim           46  value    6.8271430813079837E-003
 DIRECTION dim           47  value    1.5849262966561056E-002
 DIRECTION dim           48  value   -1.9319415674501187E-003
  Cycle:     10 Energy:      -430.480897  Gnorm:      3.629462  CPU:    0.059
 ALPHA BEFORE:   0.13709840881832039     
 XC BEFORE:   0.75803550451368462     
  ** Opt : line minimisation
left   ...       0.00000000    -430.48089718
centre ...       0.03427460    -431.55002174
right  ...       0.06854920    -432.47594250

left   ...       0.00000000    -430.48089718
centre ...       0.03427460    -431.55002174
right  ...       0.06854920    -432.47594250
new    ...       0.27302309    -435.24120660

__s__    ...       0.20447388

left   ...       0.03427460    -431.55002174
centre ...       0.06854920    -432.47594250
right  ...       0.27302309    -435.24120660
new    ...       0.29045083    -435.26827231

__s__    ...       0.01742775

 ALPHA AFTER:   0.29045083384423631     
 XC AFTER:   0.76017332206560451     
 SANITY CHECK:   0.29045083384422343     
 DIRECTION dim            1  value    7.3603422776415709E-003
 DIRECTION dim            2  value   -4.5039973606414083E-002
 DIRECTION dim            3  value    2.1414445253426027E-002
 DIRECTION dim            4  value    3.2998695441690068E-002
 DIRECTION dim            5  value   -9.1192166673097017E-003
 DIRECTION dim            6  value   -2.3754847111594472E-002
 DIRECTION dim            7  value    3.4949864064954685E-002
 DIRECTION dim            8  value    1.2135950105415592E-002
 DIRECTION dim            9  value    2.5129772992571204E-002
 DIRECTION dim           10  value    6.3936084631753029E-002
 DIRECTION dim           11  value   -1.0178289568297286E-002
 DIRECTION dim           12  value   -1.1636539832269562E-003
 DIRECTION dim           13  value    2.7928689192577544E-002
 DIRECTION dim           14  value   -1.3348824347488516E-002
 DIRECTION dim           15  value    1.0998522081267430E-002
 DIRECTION dim           16  value    3.7617957614354380E-002
 DIRECTION dim           17  value    3.0149983013802503E-002
 DIRECTION dim           18  value   -5.1020780452414080E-002
 DIRECTION dim           19  value    1.5669082883098144E-002
 DIRECTION dim           20  value   -2.3240995392594013E-002
 DIRECTION dim           21  value    5.2188548426019152E-002
 DIRECTION dim           22  value   -1.6600110973972352E-002
 DIRECTION dim           23  value    2.7458810221651211E-002
 DIRECTION dim           24  value    3.2732131921631678E-004
 DIRECTION dim           25  value    3.6548365396187055E-003
 DIRECTION dim           26  value    3.5459249965052238E-002
 DIRECTION dim           27  value   -6.4774489634998253E-003
 DIRECTION dim           28  value   -2.2068962619242294E-002
 DIRECTION dim           29  value    1.6532326105810170E-002
 DIRECTION dim           30  value   -1.7201095610034651E-002
 DIRECTION dim           31  value   -6.9521338330248688E-003
 DIRECTION dim           32  value   -2.1834190992537513E-003
 DIRECTION dim           33  value    7.7564440085060209E-003
 DIRECTION dim           34  value   -6.0451302880550589E-002
 DIRECTION dim           35  value    2.2583847359519890E-002
 DIRECTION dim           36  value    3.7496178614229436E-002
 DIRECTION dim           37  value   -1.2614877220406242E-002
 DIRECTION dim           38  value   -7.6698279775498229E-002
 DIRECTION dim           39  value   -1.3687512658109122E-002
 DIRECTION dim           40  value   -6.5344060635293064E-002
 DIRECTION dim           41  value    1.8676592711658068E-002
 DIRECTION dim           42  value   -2.4285074591699228E-002
 DIRECTION dim           43  value   -6.2479865532725073E-003
 DIRECTION dim           44  value   -2.0485203352453057E-002
 DIRECTION dim           45  value   -1.8103170749363722E-002
 DIRECTION dim           46  value   -9.8895657346457209E-004
 DIRECTION dim           47  value    1.9434752485582914E-002
 DIRECTION dim           48  value    1.4721089668284064E-003
  Cycle:     11 Energy:      -435.268272  Gnorm:      3.544090  CPU:    0.064
 ALPHA BEFORE:   0.29045083384423631     
 XC BEFORE:   0.76017332206560451     
  ** Opt : line minimisation
left   ...       0.00000000    -435.26827231
centre ...       0.07261271    -437.21375519
right  ...       0.14522542    -438.70995590

left   ...       0.00000000    -435.26827231
centre ...       0.07261271    -437.21375519
right  ...       0.14522542    -438.70995590
new    ...       0.35073410    -440.24219168

__s__    ...       0.20550869

left   ...       0.07261271    -437.21375519
centre ...       0.14522542    -438.70995590
right  ...       0.35073410    -440.24219168
new    ...       0.32682835    -440.28607881

__s__    ...      -0.02390575

 ALPHA AFTER:   0.32682835166717744     
 XC AFTER:   0.76833804612746437     
 SANITY CHECK:   0.32682835166718111     
 DIRECTION dim            1  value    2.4981688461881792E-002
 DIRECTION dim            2  value   -4.3952318964276427E-002
 DIRECTION dim            3  value    2.3284517026148935E-002
 DIRECTION dim            4  value    5.7540005084128272E-002
 DIRECTION dim            5  value   -1.4032228548499058E-002
 DIRECTION dim            6  value   -2.5045347571170083E-002
 DIRECTION dim            7  value    5.5453782918228653E-002
 DIRECTION dim            8  value   -3.6579047913202732E-002
 DIRECTION dim            9  value    4.8377951243149059E-002
 DIRECTION dim           10  value    9.8872230529348848E-002
 DIRECTION dim           11  value   -3.1914172176623054E-002
 DIRECTION dim           12  value   -2.9704359194228842E-003
 DIRECTION dim           13  value    3.2641642849544433E-002
 DIRECTION dim           14  value   -4.9718522793271894E-002
 DIRECTION dim           15  value    7.0082771296314907E-003
 DIRECTION dim           16  value    3.7322441078773881E-002
 DIRECTION dim           17  value    3.9727048026859571E-002
 DIRECTION dim           18  value   -8.1250379688197913E-002
 DIRECTION dim           19  value    2.1486038027194287E-002
 DIRECTION dim           20  value   -1.7168184464678424E-002
 DIRECTION dim           21  value   -2.2482027138645132E-002
 DIRECTION dim           22  value   -3.0669474618528793E-002
 DIRECTION dim           23  value    4.6679510699969319E-002
 DIRECTION dim           24  value    9.6394763522784175E-003
 DIRECTION dim           25  value    9.6240486442558063E-003
 DIRECTION dim           26  value    3.5246764707164660E-002
 DIRECTION dim           27  value    1.7663104145359473E-002
 DIRECTION dim           28  value   -3.9053615729473780E-002
 DIRECTION dim           29  value    1.0559967219903453E-002
 DIRECTION dim           30  value   -2.7531270673082885E-002
 DIRECTION dim           31  value   -1.2342039264296372E-002
 DIRECTION dim           32  value   -1.5458481394528900E-003
 DIRECTION dim           33  value    1.0617556944579044E-002
 DIRECTION dim           34  value  -0.11682151792302843     
 DIRECTION dim           35  value    2.8368098670031976E-002
 DIRECTION dim           36  value    5.3637728703965035E-002
 DIRECTION dim           37  value   -1.4348724038183772E-002
 DIRECTION dim           38  value   -1.3505471418684620E-002
 DIRECTION dim           39  value   -2.0550995250229839E-002
 DIRECTION dim           40  value   -7.1203296248711329E-002
 DIRECTION dim           41  value    3.9056954690547208E-002
 DIRECTION dim           42  value    4.2390217062641726E-002
 DIRECTION dim           43  value   -9.0961530625824610E-004
 DIRECTION dim           44  value   -3.3819632265651406E-002
 DIRECTION dim           45  value   -4.3763728968603019E-002
 DIRECTION dim           46  value   -4.2515921715889759E-003
 DIRECTION dim           47  value    2.2420095329495841E-002
 DIRECTION dim           48  value    1.3298778931991113E-002
  Cycle:     12 Energy:      -440.286079  Gnorm:      3.584659  CPU:    0.068
 ALPHA BEFORE:   0.32682835166717744     
 XC BEFORE:   0.76833804612746437     
  ** Opt : line minimisation
left   ...       0.00000000    -440.28607881
centre ...       0.08170709    -442.38283544
right  ...       0.16341418    -443.90327473

left   ...       0.00000000    -440.28607881
centre ...       0.08170709    -442.38283544
right  ...       0.16341418    -443.90327473
new    ...       0.33812012    -445.42788397

__s__    ...       0.17470594

left   ...       0.08170709    -442.38283544
centre ...       0.16341418    -443.90327473
right  ...       0.33812012    -445.42788397
new    ...       0.36398878    -445.46665330

__s__    ...       0.02586867

 ALPHA AFTER:   0.36398878206075391     
 XC AFTER:   0.77707229628687491     
 SANITY CHECK:   0.36398878206075125     
 DIRECTION dim            1  value    2.3995932264617860E-002
 DIRECTION dim            2  value   -2.7324113081481409E-002
 DIRECTION dim            3  value    2.9601828393006138E-002
 DIRECTION dim            4  value    2.3455740737294242E-002
 DIRECTION dim            5  value    2.1525056274275894E-002
 DIRECTION dim            6  value    1.9207767931689174E-002
 DIRECTION dim            7  value    3.5558877695127979E-002
 DIRECTION dim            8  value   -3.4213887920045372E-002
 DIRECTION dim            9  value    1.0709453080819401E-002
 DIRECTION dim           10  value    4.6323738346854389E-002
 DIRECTION dim           11  value   -5.3481308549561138E-002
 DIRECTION dim           12  value   -1.4747965459235891E-002
 DIRECTION dim           13  value    2.2527046664926186E-002
 DIRECTION dim           14  value   -8.3036613602763154E-002
 DIRECTION dim           15  value   -4.3638825461127413E-002
 DIRECTION dim           16  value   -1.4454590610257129E-002
 DIRECTION dim           17  value    9.4061761758380373E-003
 DIRECTION dim           18  value   -7.9898075880591557E-002
 DIRECTION dim           19  value    2.6255190568312221E-002
 DIRECTION dim           20  value   -1.3024608349868756E-002
 DIRECTION dim           21  value   -4.6942012703010197E-002
 DIRECTION dim           22  value   -2.9662249627421984E-002
 DIRECTION dim           23  value    4.3899247622702704E-002
 DIRECTION dim           24  value    1.4748754583220159E-002
 DIRECTION dim           25  value    2.2852648935899618E-002
 DIRECTION dim           26  value    7.5583313118803043E-003
 DIRECTION dim           27  value    5.0880692407660626E-002
 DIRECTION dim           28  value   -3.9358086418953470E-002
 DIRECTION dim           29  value   -3.2961484323544210E-003
 DIRECTION dim           30  value   -1.9086660867159013E-002
 DIRECTION dim           31  value   -1.1384522983686807E-002
 DIRECTION dim           32  value    5.7970759615979519E-003
 DIRECTION dim           33  value    1.1133683346330353E-002
 DIRECTION dim           34  value   -4.7062539517527958E-002
 DIRECTION dim           35  value    1.3291903006606402E-002
 DIRECTION dim           36  value    1.1534292647200375E-002
 DIRECTION dim           37  value   -1.1344432517641188E-003
 DIRECTION dim           38  value    2.9188446836072503E-002
 DIRECTION dim           39  value    5.0804758939741415E-002
 DIRECTION dim           40  value   -1.5438519487810921E-002
 DIRECTION dim           41  value    8.7336089998369115E-002
 DIRECTION dim           42  value    5.3122602766131184E-002
 DIRECTION dim           43  value    2.9292711575730549E-002
 DIRECTION dim           44  value   -3.1986180475776331E-002
 DIRECTION dim           45  value   -3.4186170078010072E-002
 DIRECTION dim           46  value   -1.1247101604893407E-003
 DIRECTION dim           47  value    1.7008206626019002E-002
 DIRECTION dim           48  value    1.3732761827887135E-002
  Cycle:     13 Energy:      -445.466653  Gnorm:      4.077131  CPU:    0.071
 ALPHA BEFORE:   0.36398878206075391     
 XC BEFORE:   0.77707229628687491     
  ** Opt : line minimisation
left   ...       0.00000000    -445.46665330
centre ...       0.09099720    -448.00099191
right  ...       0.18199439    -448.27166634

left   ...       0.00000000    -445.46665330
centre ...       0.09099720    -448.00099191
right  ...       0.18199439    -448.27166634
new    ...       0.14737665    -448.47817101

__s__    ...      -0.03461774

 ALPHA AFTER:   0.14737665355903223     
 XC AFTER:   0.78145121732893685     
 SANITY CHECK:   0.14737665355903115     
 DIRECTION dim            1  value    2.9712447231731890E-002
 DIRECTION dim            2  value   -3.6694832415624233E-002
 DIRECTION dim            3  value    3.9593454305726167E-002
 DIRECTION dim            4  value    5.1901306357322180E-004
 DIRECTION dim            5  value    5.4639748524960376E-002
 DIRECTION dim            6  value    3.9575669586587467E-002
 DIRECTION dim            7  value    2.7480987127237580E-002
 DIRECTION dim            8  value   -3.0127522625977454E-002
 DIRECTION dim            9  value   -9.0906342785682832E-003
 DIRECTION dim           10  value    4.5143833976977334E-002
 DIRECTION dim           11  value   -5.0674724387700966E-002
 DIRECTION dim           12  value    3.8714448121253756E-003
 DIRECTION dim           13  value    2.6043155602094744E-002
 DIRECTION dim           14  value  -0.15702031122464460     
 DIRECTION dim           15  value   -8.1548032426193046E-002
 DIRECTION dim           16  value    3.0800443953310254E-003
 DIRECTION dim           17  value    4.1983057677970767E-002
 DIRECTION dim           18  value   -5.7120513665084013E-002
 DIRECTION dim           19  value    5.6091858327265695E-002
 DIRECTION dim           20  value   -5.2797773603421055E-002
 DIRECTION dim           21  value   -3.2579897358525831E-003
 DIRECTION dim           22  value   -4.1870321229117123E-002
 DIRECTION dim           23  value    7.1254248857309077E-002
 DIRECTION dim           24  value    3.6208998527577398E-003
 DIRECTION dim           25  value    5.4032058635488177E-002
 DIRECTION dim           26  value    2.6378350139119565E-003
 DIRECTION dim           27  value    8.2843847872445892E-002
 DIRECTION dim           28  value   -6.1787223719027493E-002
 DIRECTION dim           29  value    6.4257817589097061E-003
 DIRECTION dim           30  value   -3.2098356077711616E-002
 DIRECTION dim           31  value   -1.4846808064228154E-002
 DIRECTION dim           32  value    1.4970744202024900E-002
 DIRECTION dim           33  value    3.8412814424111569E-002
 DIRECTION dim           34  value   -2.0550428049851827E-003
 DIRECTION dim           35  value   -1.7367953913234653E-002
 DIRECTION dim           36  value    2.2380270835529570E-002
 DIRECTION dim           37  value    1.0128152567156646E-002
 DIRECTION dim           38  value    1.0195901605715464E-002
 DIRECTION dim           39  value    3.7232518653020512E-002
 DIRECTION dim           40  value   -7.7328490488886861E-002
 DIRECTION dim           41  value   0.15891298093130024     
 DIRECTION dim           42  value   -2.5778600553316239E-002
 DIRECTION dim           43  value    4.2273573440261385E-002
 DIRECTION dim           44  value   -4.4510207978142292E-002
 DIRECTION dim           45  value   -4.6687340984290192E-002
 DIRECTION dim           46  value   -7.6287598284367469E-003
 DIRECTION dim           47  value    2.3741327168040560E-002
 DIRECTION dim           48  value    8.0277524952860196E-003
  Cycle:     14 Energy:      -448.478171  Gnorm:      3.148754  CPU:    0.074
 ALPHA BEFORE:   0.14737665355903223     
 XC BEFORE:   0.78145121732893685     
  ** Opt : line minimisation
left   ...       0.00000000    -448.47817101
centre ...       0.03684416    -449.27362719
right  ...       0.07368833    -449.97644110

left   ...       0.00000000    -448.47817101
centre ...       0.03684416    -449.27362719
right  ...       0.07368833    -449.97644110
new    ...       0.33477786    -452.49960298

__s__    ...       0.26108953

left   ...       0.03684416    -449.27362719
centre ...       0.07368833    -449.97644110
right  ...       0.33477786    -452.49960298
new    ...       0.35719871    -452.51821848

__s__    ...       0.02242085

 ALPHA AFTER:   0.35719870504015327     
 XC AFTER:   0.78238746139088655     
 SANITY CHECK:   0.35719870504016582     
 DIRECTION dim            1  value    2.6210735054160417E-003
 DIRECTION dim            2  value   -1.3755851046447765E-002
 DIRECTION dim            3  value    1.0298208029306238E-002
 DIRECTION dim            4  value   -1.4658407142906355E-002
 DIRECTION dim            5  value    6.2849064231164566E-003
 DIRECTION dim            6  value    1.0609679473264782E-002
 DIRECTION dim            7  value   -9.7795858699284578E-003
 DIRECTION dim            8  value    8.9934183964571063E-003
 DIRECTION dim            9  value   -1.6674884124103950E-002
 DIRECTION dim           10  value    6.5568870885858686E-003
 DIRECTION dim           11  value    2.0917617840251247E-002
 DIRECTION dim           12  value    3.3898874613966873E-002
 DIRECTION dim           13  value   -1.2750074646547170E-002
 DIRECTION dim           14  value   -4.6217180622223492E-002
 DIRECTION dim           15  value   -7.1687879482057407E-003
 DIRECTION dim           16  value    1.9483039551682391E-002
 DIRECTION dim           17  value    4.1577136849882894E-002
 DIRECTION dim           18  value    2.2111413315383480E-002
 DIRECTION dim           19  value    3.4242352569371437E-003
 DIRECTION dim           20  value    2.8695639631850026E-003
 DIRECTION dim           21  value   -8.9906327678304157E-003
 DIRECTION dim           22  value   -1.6073467864502075E-002
 DIRECTION dim           23  value    3.8097907002333273E-002
 DIRECTION dim           24  value   -1.5829338119244474E-002
 DIRECTION dim           25  value    3.5717622598889998E-002
 DIRECTION dim           26  value    8.3410004790047661E-004
 DIRECTION dim           27  value    2.9176089768211483E-002
 DIRECTION dim           28  value   -2.6638849054385221E-002
 DIRECTION dim           29  value    2.2293066160011830E-002
 DIRECTION dim           30  value   -1.6859945572093003E-002
 DIRECTION dim           31  value   -3.3480999772534945E-003
 DIRECTION dim           32  value    9.3974720888907234E-003
 DIRECTION dim           33  value    3.2946878886941304E-002
 DIRECTION dim           34  value    4.7836001429415305E-002
 DIRECTION dim           35  value   -1.6427359346503488E-002
 DIRECTION dim           36  value    3.0172149821584258E-002
 DIRECTION dim           37  value    3.4499621671806140E-003
 DIRECTION dim           38  value   -5.0674006816953471E-002
 DIRECTION dim           39  value   -5.3358758784319255E-002
 DIRECTION dim           40  value   -2.6794096798728760E-002
 DIRECTION dim           41  value   -7.7254973721837747E-003
 DIRECTION dim           42  value   -4.3861081579693165E-002
 DIRECTION dim           43  value    5.8970609155556703E-003
 DIRECTION dim           44  value   -2.1353956952381438E-002
 DIRECTION dim           45  value   -2.1971423423355649E-002
 DIRECTION dim           46  value    3.6413908381070790E-003
 DIRECTION dim           47  value    2.7808316945780107E-003
 DIRECTION dim           48  value   -1.0282847172095821E-004
  Cycle:     15 Energy:      -452.518218  Gnorm:      1.952356  CPU:    0.078
 ALPHA BEFORE:   0.35719870504015327     
 XC BEFORE:   0.78238746139088655     
  ** Opt : line minimisation
left   ...       0.00000000    -452.51821848
centre ...       0.08929968    -453.25381201
right  ...       0.17859935    -453.86294304

left   ...       0.00000000    -452.51821848
centre ...       0.08929968    -453.25381201
right  ...       0.17859935    -453.86294304
new    ...       0.56407861    -454.80262613

__s__    ...       0.38547926

left   ...       0.08929968    -453.25381201
centre ...       0.17859935    -453.86294304
right  ...       0.56407861    -454.80262613
new    ...       0.50335323    -454.86416989

__s__    ...      -0.06072538

 ALPHA AFTER:   0.50335323499104256     
 XC AFTER:   0.78493183376540321     
 SANITY CHECK:   0.50335323499101781     
 DIRECTION dim            1  value    5.0548445855564247E-003
 DIRECTION dim            2  value    3.0505582686605574E-003
 DIRECTION dim            3  value    8.4160026561786137E-003
 DIRECTION dim            4  value   -4.2645965399480167E-003
 DIRECTION dim            5  value   -8.3538849751959923E-003
 DIRECTION dim            6  value    1.7321573561007081E-002
 DIRECTION dim            7  value   -1.0120590096801739E-002
 DIRECTION dim            8  value   -9.3158457671563017E-003
 DIRECTION dim            9  value   -1.3762952563971356E-002
 DIRECTION dim           10  value   -1.6008739072491843E-002
 DIRECTION dim           11  value   -8.7417104102895625E-004
 DIRECTION dim           12  value   -1.6870147032962364E-002
 DIRECTION dim           13  value   -2.0107160378275896E-002
 DIRECTION dim           14  value   -2.0656374832729120E-002
 DIRECTION dim           15  value   -6.0485400794322852E-003
 DIRECTION dim           16  value   -2.1666412214948264E-003
 DIRECTION dim           17  value    1.4822981312712360E-002
 DIRECTION dim           18  value   -1.0367715145721155E-002
 DIRECTION dim           19  value   -4.4836605900955076E-003
 DIRECTION dim           20  value    1.4608039656875139E-002
 DIRECTION dim           21  value   -2.8551963375428886E-002
 DIRECTION dim           22  value   -2.0548386639999913E-002
 DIRECTION dim           23  value    4.2042736526457111E-002
 DIRECTION dim           24  value   -7.5319183070535461E-003
 DIRECTION dim           25  value    3.0004998284899328E-002
 DIRECTION dim           26  value    5.5215595391151871E-003
 DIRECTION dim           27  value    2.1206918849420185E-002
 DIRECTION dim           28  value   -2.0536704889740062E-002
 DIRECTION dim           29  value    1.5992384651667198E-002
 DIRECTION dim           30  value   -8.1474252267467739E-003
 DIRECTION dim           31  value   -7.9773999794860038E-004
 DIRECTION dim           32  value    9.9576381845264926E-003
 DIRECTION dim           33  value    2.2888964611792205E-002
 DIRECTION dim           34  value    4.2985096496635747E-002
 DIRECTION dim           35  value   -1.6652201099697249E-002
 DIRECTION dim           36  value    2.2338333064021717E-002
 DIRECTION dim           37  value    8.1383210478592136E-003
 DIRECTION dim           38  value   -9.0170022158434990E-003
 DIRECTION dim           39  value    5.7786358873775368E-003
 DIRECTION dim           40  value    1.1923572526465687E-002
 DIRECTION dim           41  value   -2.2157513851539207E-002
 DIRECTION dim           42  value    7.8432356598546818E-003
 DIRECTION dim           43  value    3.9406774235231914E-003
 DIRECTION dim           44  value   -1.8644741877663379E-002
 DIRECTION dim           45  value   -2.3472571054314141E-002
 DIRECTION dim           46  value    9.1946576500971967E-003
 DIRECTION dim           47  value   -3.7123363684064756E-003
 DIRECTION dim           48  value    6.6312752364947559E-003
  Cycle:     16 Energy:      -454.864170  Gnorm:      2.341955  CPU:    0.081
 Perform trimming
 ALPHA BEFORE:   0.50335323499104256     
 XC BEFORE:   0.78493183376540321     
  ** Opt : line minimisation
left   ...       0.00000000    -454.86416989
centre ...       0.12583831    -456.01331558
right  ...       0.25167662    -456.63672262

left   ...       0.00000000    -454.86416989
centre ...       0.12583831    -456.01331558
right  ...       0.25167662    -456.63672262
new    ...       0.33797321    -456.61746931

__s__    ...       0.08629659

 ALPHA AFTER:   0.25167661749552128     
 XC AFTER:   0.78826753913097747     
 SANITY CHECK:   0.25167661749552195     
 DIRECTION dim            1  value    1.3253934349437970E-002
 DIRECTION dim            2  value    1.7385254139190270E-002
 DIRECTION dim            3  value    1.1219658970476753E-002
 DIRECTION dim            4  value    6.0217183393768935E-003
 DIRECTION dim            5  value   -2.3626483093525486E-002
 DIRECTION dim            6  value    3.3021703801437777E-002
 DIRECTION dim            7  value   -1.5106920587527032E-002
 DIRECTION dim            8  value   -4.1011850761531840E-002
 DIRECTION dim            9  value   -8.1625196814025004E-003
 DIRECTION dim           10  value   -1.2836598978299014E-002
 DIRECTION dim           11  value    4.5673717032305109E-003
 DIRECTION dim           12  value   -8.9811333402399825E-003
 DIRECTION dim           13  value   -2.5767392272215181E-002
 DIRECTION dim           14  value   -2.3228337711309728E-002
 DIRECTION dim           15  value   -1.0533799435722547E-002
 DIRECTION dim           16  value   -1.3044578654126861E-002
 DIRECTION dim           17  value    7.7787617294414416E-003
 DIRECTION dim           18  value   -4.0620775621293723E-002
 DIRECTION dim           19  value    1.5849381520055657E-002
 DIRECTION dim           20  value   -1.0619312014156073E-002
 DIRECTION dim           21  value   -8.0948393052884728E-003
 DIRECTION dim           22  value   -4.1975877866837957E-002
 DIRECTION dim           23  value    8.0539393428699785E-002
 DIRECTION dim           24  value   -1.5736246094160723E-002
 DIRECTION dim           25  value    4.2165970456283723E-002
 DIRECTION dim           26  value    1.0569505904585993E-002
 DIRECTION dim           27  value    3.2904154512320261E-002
 DIRECTION dim           28  value   -2.8928254769471261E-002
 DIRECTION dim           29  value    1.7173681877042286E-002
 DIRECTION dim           30  value   -1.2296057125308960E-002
 DIRECTION dim           31  value    1.1456106210911666E-003
 DIRECTION dim           32  value    1.4768925015822776E-002
 DIRECTION dim           33  value    3.4574102261277884E-002
 DIRECTION dim           34  value    4.4208769346089229E-002
 DIRECTION dim           35  value   -4.6107936099376377E-002
 DIRECTION dim           36  value    1.8739855267412415E-002
 DIRECTION dim           37  value    5.5973673656749675E-003
 DIRECTION dim           38  value    2.5772678475356418E-002
 DIRECTION dim           39  value    9.3137635333354323E-003
 DIRECTION dim           40  value    5.9006886546720443E-003
 DIRECTION dim           41  value    2.1028557861228810E-003
 DIRECTION dim           42  value   -9.9500854410002997E-003
 DIRECTION dim           43  value    8.7605860187226197E-003
 DIRECTION dim           44  value   -2.7149794326744432E-002
 DIRECTION dim           45  value   -3.0115042925048238E-002
 DIRECTION dim           46  value    1.1652326198176974E-002
 DIRECTION dim           47  value   -8.1402002902016928E-003
 DIRECTION dim           48  value    1.1450572339684701E-002
  Cycle:     17 Energy:      -456.636723  Gnorm:      1.673606  CPU:    0.084
 ALPHA BEFORE:   0.25167661749552128     
 XC BEFORE:   0.78826753913097747     
  ** Opt : line minimisation
left   ...       0.00000000    -456.63672262
centre ...       0.06291915    -456.98423771
right  ...       0.12583831    -457.22594245

left   ...       0.00000000    -456.63672262
centre ...       0.06291915    -456.98423771
right  ...       0.12583831    -457.22594245
new    ...       0.23810622    -457.42724139

__s__    ...       0.11226791

left   ...       0.06291915    -456.98423771
centre ...       0.12583831    -457.22594245
right  ...       0.23810622    -457.42724139
new    ...       0.25864202    -457.43535044

__s__    ...       0.02053580

 ALPHA AFTER:   0.25864201681216065     
 XC AFTER:   0.78901962864427400     
 SANITY CHECK:   0.25864201681216686     
 DIRECTION dim            1  value    2.9078396563954893E-003
 DIRECTION dim            2  value    7.9435048293497422E-003
 DIRECTION dim            3  value    2.4992447259054888E-003
 DIRECTION dim            4  value    1.6883798362930694E-002
 DIRECTION dim            5  value   -1.6158628672871166E-002
 DIRECTION dim            6  value    1.2805336394683548E-002
 DIRECTION dim            7  value    2.7664930835019910E-003
 DIRECTION dim            8  value    2.2128984267160822E-003
 DIRECTION dim            9  value    8.2014832892346335E-003
 DIRECTION dim           10  value    1.5326054373958896E-002
 DIRECTION dim           11  value    3.6633145334832341E-003
 DIRECTION dim           12  value    2.3703187666208776E-002
 DIRECTION dim           13  value    6.8388247738453397E-003
 DIRECTION dim           14  value    5.8224011473425822E-003
 DIRECTION dim           15  value   -3.9910930124096239E-003
 DIRECTION dim           16  value    3.0845172292114161E-003
 DIRECTION dim           17  value   -2.5666907326551197E-003
 DIRECTION dim           18  value   -1.7026152175997747E-002
 DIRECTION dim           19  value    1.7301418790368350E-002
 DIRECTION dim           20  value   -2.6647798779747389E-002
 DIRECTION dim           21  value    2.2113654196151061E-002
 DIRECTION dim           22  value   -1.3221208389944183E-002
 DIRECTION dim           23  value    1.5186141332354757E-002
 DIRECTION dim           24  value    1.9427324484812781E-003
 DIRECTION dim           25  value   -1.0417062498936545E-003
 DIRECTION dim           26  value    5.6201599208289361E-004
 DIRECTION dim           27  value    4.7280143006061337E-003
 DIRECTION dim           28  value   -1.3069757084618898E-003
 DIRECTION dim           29  value   -3.9203270133654723E-003
 DIRECTION dim           30  value   -1.2938368548642666E-003
 DIRECTION dim           31  value    2.3790772983949206E-003
 DIRECTION dim           32  value   -3.9313649093698638E-003
 DIRECTION dim           33  value   -1.1102614241443134E-003
 DIRECTION dim           34  value   -1.8426198341341384E-002
 DIRECTION dim           35  value    4.4125646846729883E-003
 DIRECTION dim           36  value   -1.9140292222960185E-002
 DIRECTION dim           37  value   -8.2295057541361440E-003
 DIRECTION dim           38  value    1.3885885898218867E-003
 DIRECTION dim           39  value    1.3300455007952943E-003
 DIRECTION dim           40  value   -2.1053501737844583E-002
 DIRECTION dim           41  value    2.1749462144994722E-002
 DIRECTION dim           42  value   -2.4011664665437790E-002
 DIRECTION dim           43  value    2.7737778059198485E-003
 DIRECTION dim           44  value   -6.4721724177686148E-003
 DIRECTION dim           45  value    2.9327061551911002E-003
 DIRECTION dim           46  value    2.0559034304195182E-003
 DIRECTION dim           47  value   -2.7177431763659933E-003
 DIRECTION dim           48  value    7.5714687301721979E-005
  Cycle:     18 Energy:      -457.435350  Gnorm:      1.016826  CPU:    0.089
 ALPHA BEFORE:   0.25864201681216065     
 XC BEFORE:   0.78901962864427400     
  ** Opt : line minimisation
left   ...       0.00000000    -457.43535044
centre ...       0.06466050    -457.58554709
right  ...       0.12932101    -457.71714814

left   ...       0.00000000    -457.43535044
centre ...       0.06466050    -457.58554709
right  ...       0.12932101    -457.71714814
new    ...       0.55459304    -458.09469567

__s__    ...       0.42527203

left   ...       0.06466050    -457.58554709
centre ...       0.12932101    -457.71714814
right  ...       0.55459304    -458.09469567
new    ...       0.53148131    -458.09684200

__s__    ...      -0.02311173

 ALPHA AFTER:   0.53148131012129118     
 XC AFTER:   0.79153174033914508     
 SANITY CHECK:   0.53148131012129840     
 DIRECTION dim            1  value    4.7266228313800097E-003
 DIRECTION dim            2  value    9.6720167079576095E-003
 DIRECTION dim            3  value   -1.0694013707004365E-003
 DIRECTION dim            4  value    1.9186617472667908E-002
 DIRECTION dim            5  value   -1.6635862255415357E-002
 DIRECTION dim            6  value    1.5352241880137750E-002
 DIRECTION dim            7  value    5.2875457859657042E-003
 DIRECTION dim            8  value    5.1673160976026394E-003
 DIRECTION dim            9  value    1.0748906291211275E-002
 DIRECTION dim           10  value    8.8661398592787301E-003
 DIRECTION dim           11  value   -5.9616403009891657E-003
[...]
new    ...       0.51956466    -469.64836825

__s__    ...       0.17899291

 ALPHA AFTER:   0.51956465786281314     
 XC AFTER:   0.76300017583982183     
 SANITY CHECK:   0.51956465786237038     
 DIRECTION dim            1  value   -2.4518944550645468E-004
 DIRECTION dim            2  value   -5.0601071322428333E-004
 DIRECTION dim            3  value    8.8178706323224093E-004
 DIRECTION dim            4  value   -2.8529312292916147E-004
 DIRECTION dim            5  value   -5.6202275144249928E-004
 DIRECTION dim            6  value    1.0272070977236287E-003
 DIRECTION dim            7  value   -5.4493076661315675E-004
 DIRECTION dim            8  value   -2.5510576802799010E-006
 DIRECTION dim            9  value    4.9891018253921614E-004
 DIRECTION dim           10  value   -4.6313049367923450E-004
 DIRECTION dim           11  value   -1.5793377986591969E-004
 DIRECTION dim           12  value    6.2713848047360964E-004
 DIRECTION dim           13  value   -2.2148961997049335E-004
 DIRECTION dim           14  value   -3.5469699581444853E-004
 DIRECTION dim           15  value    8.1786567531837477E-004
 DIRECTION dim           16  value   -4.4079159659284414E-004
 DIRECTION dim           17  value   -2.8864242211654466E-004
 DIRECTION dim           18  value    8.5785359981680506E-004
 DIRECTION dim           19  value   -4.0403373201909376E-004
 DIRECTION dim           20  value   -6.1618768636157763E-004
 DIRECTION dim           21  value    1.0030922938575931E-003
 DIRECTION dim           22  value   -2.3920321504308805E-004
 DIRECTION dim           23  value   -5.5476969658131356E-004
 DIRECTION dim           24  value    7.5611342355115236E-004
 DIRECTION dim           25  value   -3.9841112920772280E-004
 DIRECTION dim           26  value   -6.2991999679483726E-004
 DIRECTION dim           27  value    1.1331373633686815E-003
 DIRECTION dim           28  value   -1.7945634468865640E-004
 DIRECTION dim           29  value   -3.2140475415440848E-004
 DIRECTION dim           30  value    9.3762920628938005E-004
 DIRECTION dim           31  value   -2.9319622376105533E-004
 DIRECTION dim           32  value   -1.0810957450877448E-003
 DIRECTION dim           33  value    1.5212136762260437E-003
 DIRECTION dim           34  value   -2.8729783680060629E-004
 DIRECTION dim           35  value   -4.2397219923577539E-004
 DIRECTION dim           36  value    7.8111540342832003E-004
 DIRECTION dim           37  value   -3.6601455302822582E-004
 DIRECTION dim           38  value   -2.1085153736228593E-004
 DIRECTION dim           39  value    5.4950166085530482E-004
 DIRECTION dim           40  value   -3.3467794941172564E-004
 DIRECTION dim           41  value   -4.4231128827351750E-004
 DIRECTION dim           42  value    8.4526086099278132E-004
 DIRECTION dim           43  value   -1.4314515402293876E-004
 DIRECTION dim           44  value    2.7282746570203722E-004
 DIRECTION dim           45  value   -2.6071865485465006E-004
 DIRECTION dim           46  value    2.1801412384678817E-004
 DIRECTION dim           47  value   -5.5717917224090631E-004
 DIRECTION dim           48  value    3.9690582712388899E-004
  Cycle:     86 Energy:      -469.648368  Gnorm:      0.002116  CPU:    0.674
 ALPHA BEFORE:    2.9504332307363828     
 XC BEFORE:   0.76300017583982183     
  ** Opt : line minimisation
left   ...       0.00000000    -469.64836825
centre ...       0.73760831    -469.64837269
right  ...       1.47521662    -469.64837044

left   ...       0.00000000    -469.64836825
centre ...       0.73760831    -469.64837269
right  ...       1.47521662    -469.64837044
new    ...       0.85809161    -469.64837278

__s__    ...      -0.61712501

 ALPHA AFTER:   0.85809160526678541     
 XC AFTER:   0.76303897841357415     
 SANITY CHECK:   0.85809160526771300     
 DIRECTION dim            1  value    4.5219617013060038E-005
 DIRECTION dim            2  value   -1.4304476565998509E-004
 DIRECTION dim            3  value    1.7937752341421411E-004
 DIRECTION dim            4  value    6.7823858458897763E-005
 DIRECTION dim            5  value   -7.4505215796780773E-005
 DIRECTION dim            6  value    2.0286430775137766E-004
 DIRECTION dim            7  value   -4.1097757039377796E-005
 DIRECTION dim            8  value    2.0762826839213354E-005
 DIRECTION dim            9  value    3.0296309871475009E-005
 DIRECTION dim           10  value   -4.7019614383738429E-005
 DIRECTION dim           11  value    7.8319176851225708E-006
 DIRECTION dim           12  value    9.3297946510001437E-005
 DIRECTION dim           13  value   -1.1004357399670917E-005
 DIRECTION dim           14  value   -9.9378943460475200E-006
 DIRECTION dim           15  value    9.8346157715838826E-005
 DIRECTION dim           16  value   -8.1014199415926826E-005
 DIRECTION dim           17  value   -4.9999406261889615E-005
 DIRECTION dim           18  value    1.3539393457007252E-004
 DIRECTION dim           19  value   -6.7387723928851093E-005
 DIRECTION dim           20  value   -1.0235853411195555E-004
 DIRECTION dim           21  value    1.8576210065391219E-004
 DIRECTION dim           22  value   -2.6608274220798372E-005
 DIRECTION dim           23  value   -9.2128254345598371E-005
 DIRECTION dim           24  value    1.2460001564213930E-004
 DIRECTION dim           25  value   -3.3021892936002525E-005
 DIRECTION dim           26  value   -7.3655950320575608E-005
 DIRECTION dim           27  value    2.1079925562664584E-004
 DIRECTION dim           28  value   -2.6373258659066371E-005
 DIRECTION dim           29  value   -4.9756143149999906E-005
 DIRECTION dim           30  value    1.6280856007447697E-004
 DIRECTION dim           31  value    2.0355271256680594E-005
 DIRECTION dim           32  value   -2.5469158967272838E-004
 DIRECTION dim           33  value    2.9421002801581335E-004
 DIRECTION dim           34  value    6.3970424773644755E-006
 DIRECTION dim           35  value   -6.5331958445059973E-005
 DIRECTION dim           36  value    1.4863805467547379E-004
 DIRECTION dim           37  value   -3.6824590439585724E-005
 DIRECTION dim           38  value   -1.0728862347309429E-005
 DIRECTION dim           39  value    6.4241596216391332E-005
 DIRECTION dim           40  value   -4.0591184419632301E-005
 DIRECTION dim           41  value   -6.2067800580360889E-005
 DIRECTION dim           42  value    1.3532858462693073E-004
 DIRECTION dim           43  value   -5.9366010444862234E-005
 DIRECTION dim           44  value    4.7854058392550269E-005
 DIRECTION dim           45  value    4.1434298665234590E-005
 DIRECTION dim           46  value   -3.1679878919637550E-005
 DIRECTION dim           47  value   -1.2521962076597935E-004
 DIRECTION dim           48  value   -4.0250991687703800E-006
  Cycle:     87 Energy:      -469.648373  Gnorm:      0.000668  CPU:    0.681
 ALPHA BEFORE:    5.0167990623180883     
 XC BEFORE:   0.76303897841357415     
  ** Opt : line minimisation
left   ...       0.00000000    -469.64837278
centre ...       1.00000000    -469.64837346
right  ...       2.00000000    -469.64837252

left   ...       0.00000000    -469.64837278
centre ...       1.00000000    -469.64837346
right  ...       2.00000000    -469.64837252
new    ...       1.00000000    -469.64837346

__s__    ...      -1.00000000

 ALPHA AFTER:    1.0000000000000000     
 XC AFTER:   0.76304760371389913     
 SANITY CHECK:    1.0000000000047276     
 DIRECTION dim            1  value    8.6253003249306649E-006
 DIRECTION dim            2  value   -1.1136031549780414E-005
 DIRECTION dim            3  value   -6.5554440186339137E-006
 DIRECTION dim            4  value    4.1134174135363724E-006
 DIRECTION dim            5  value   -1.4149092126246640E-005
 DIRECTION dim            6  value   -6.8830118876889457E-006
 DIRECTION dim            7  value   -2.2811055741642953E-005
 DIRECTION dim            8  value    1.5010730753943559E-005
 DIRECTION dim            9  value   -4.2920116346050797E-005
 DIRECTION dim           10  value    1.6460792280175834E-006
 DIRECTION dim           11  value   -1.5280376190309070E-005
 DIRECTION dim           12  value   -5.6593737646968384E-006
 DIRECTION dim           13  value   -1.4782222792732656E-005
 DIRECTION dim           14  value    2.5365449144443241E-006
 DIRECTION dim           15  value   -2.8293685732803042E-005
 DIRECTION dim           16  value   -7.4094681862268807E-006
 DIRECTION dim           17  value   -2.8627815064151711E-006
 DIRECTION dim           18  value   -3.1617717734817487E-005
 DIRECTION dim           19  value   -9.1144977469589275E-006
 DIRECTION dim           20  value    2.9261050439608077E-006
 DIRECTION dim           21  value   -2.4729640095304963E-005
 DIRECTION dim           22  value   -1.8039755553119482E-006
 DIRECTION dim           23  value   -8.5553596524742301E-008
 DIRECTION dim           24  value   -1.1300222706328595E-005
 DIRECTION dim           25  value   -1.6828839219836733E-005
 DIRECTION dim           26  value   -1.4460527676796103E-005
 DIRECTION dim           27  value   -1.2284162722365990E-005
 DIRECTION dim           28  value   -2.7782003855896814E-006
 DIRECTION dim           29  value    3.5999943081567557E-006
 DIRECTION dim           30  value   -1.0809668295840636E-005
 DIRECTION dim           31  value    4.8240416214931612E-006
 DIRECTION dim           32  value   -3.7410958240567769E-005
 DIRECTION dim           33  value    5.7945902579620228E-006
 DIRECTION dim           34  value    2.5368128491504181E-006
 DIRECTION dim           35  value   -1.4224668448144906E-005
 DIRECTION dim           36  value   -3.3177434291510534E-006
 DIRECTION dim           37  value   -9.0325491079304537E-006
 DIRECTION dim           38  value    1.1198183608055355E-006
 DIRECTION dim           39  value   -1.9088448920185833E-005
 DIRECTION dim           40  value   -3.3031920553948847E-006
 DIRECTION dim           41  value    2.7675129350795307E-006
 DIRECTION dim           42  value   -2.4740030902517606E-005
 DIRECTION dim           43  value   -2.7475130553077840E-005
 DIRECTION dim           44  value    1.8888547861176929E-005
 DIRECTION dim           45  value    3.0770254626313407E-005
 DIRECTION dim           46  value   -5.1635601215387638E-005
 DIRECTION dim           47  value    2.8693778332169519E-005
 DIRECTION dim           48  value   -2.3443938415348367E-005
  Cycle:     88 Energy:      -469.648373  Gnorm:      0.000454  CPU:    0.688
 ALPHA BEFORE:    1.1474176333781076     
 XC BEFORE:   0.76304760371389913     
  ** Opt : line minimisation
left   ...       0.00000000    -469.64837346
centre ...       0.28685441    -469.64837354
right  ...       0.57370882    -469.64837358

left   ...       0.00000000    -469.64837346
centre ...       0.28685441    -469.64837354
right  ...       0.57370882    -469.64837358
new    ...       0.73466454    -469.64837359

__s__    ...       0.16095573

 ALPHA AFTER:   0.73466454188904695     
 XC AFTER:   0.76304248674228359     
 SANITY CHECK:   0.73466454187703212     
 DIRECTION dim            1  value   -6.9650450292100210E-006
 DIRECTION dim            2  value    7.6782035731525114E-006
 DIRECTION dim            3  value   -2.0286719797453397E-005
 DIRECTION dim            4  value   -1.6689548318211204E-005
 DIRECTION dim            5  value   -1.1582937138844585E-005
 DIRECTION dim            6  value   -2.1147042724543351E-005
 DIRECTION dim            7  value   -2.4581748879771262E-005
 DIRECTION dim            8  value    9.4135440595758973E-006
 DIRECTION dim            9  value   -3.0283355458210183E-005
 DIRECTION dim           10  value    6.6366536435428405E-007
 DIRECTION dim           11  value   -1.8064485293682012E-005
 DIRECTION dim           12  value   -8.9947612169331649E-006
 DIRECTION dim           13  value   -1.6098386442513698E-005
 DIRECTION dim           14  value   -4.3899775676171397E-006
 DIRECTION dim           15  value   -2.4603847567735165E-005
 DIRECTION dim           16  value    9.2228436520717344E-007
 DIRECTION dim           17  value   -5.2545378878241806E-007
 DIRECTION dim           18  value   -3.2804673795660962E-005
 DIRECTION dim           19  value   -3.1109505890004745E-006
 DIRECTION dim           20  value    8.2310115698544881E-006
 DIRECTION dim           21  value   -3.3472119828874437E-005
 DIRECTION dim           22  value   -2.1301934883433423E-007
 DIRECTION dim           23  value    3.9439711797115589E-006
 DIRECTION dim           24  value   -1.6856737402464339E-005
 DIRECTION dim           25  value   -1.6339339276618475E-005
 DIRECTION dim           26  value   -1.2576305608464114E-005
 DIRECTION dim           27  value   -2.5145552313045946E-005
 DIRECTION dim           28  value   -4.5753869610931557E-007
 DIRECTION dim           29  value    6.1156561293339929E-006
 DIRECTION dim           30  value   -1.9027198158440502E-005
 DIRECTION dim           31  value   -6.5821788538487123E-006
 DIRECTION dim           32  value   -8.9919628030770829E-006
 DIRECTION dim           33  value   -1.5729503711069035E-005
 DIRECTION dim           34  value   -4.6131883457418007E-006
 DIRECTION dim           35  value   -9.5872543363484957E-006
 DIRECTION dim           36  value   -1.4208317899526268E-005
 DIRECTION dim           37  value   -8.5840535903726192E-006
 DIRECTION dim           38  value   -1.6160684911752619E-006
 DIRECTION dim           39  value   -1.5923402183027624E-005
 DIRECTION dim           40  value   -2.0397750783206400E-006
 DIRECTION dim           41  value    3.6287292008093079E-006
 DIRECTION dim           42  value   -2.7757584080397250E-005
 DIRECTION dim           43  value   -1.4827641074043653E-005
 DIRECTION dim           44  value    1.2584012143120301E-005
 DIRECTION dim           45  value    5.2708507937463736E-006
 DIRECTION dim           46  value   -2.5660904707497711E-005
 DIRECTION dim           47  value    2.9487558483985248E-005
 DIRECTION dim           48  value   -6.2468158389537389E-006


  **** Optimisation achieved ****


  Final energy =    -469.64837359 eV
  Final Gnorm  =       0.00030263

  Components of energy : 

--------------------------------------------------------------------------------
  Interatomic potentials     =          75.75955118 eV    
  Monopole - monopole (real) =        -293.07877815 eV    
  Monopole - monopole (recip)=        -252.32914661 eV    
  Monopole - monopole (total)=        -545.40792476 eV    
--------------------------------------------------------------------------------
  Total lattice energy       =        -469.64837359 eV    
--------------------------------------------------------------------------------
  Total lattice energy       =          -45313.8888 kJ/(mole unit cells)
--------------------------------------------------------------------------------

  Final fractional coordinates of atoms :

--------------------------------------------------------------------------------
   No.  Atomic        x           y          z          Radius
        Label       (Frac)      (Frac)     (Frac)       (Angs) 
--------------------------------------------------------------------------------
     1  O     c     0.000000    0.333330    0.833330    0.000000
     2  O     c     0.763042    0.460030    0.248971    0.000000
     3  O     c     0.387836    0.551823    0.329111    0.000000
     4  O     c     0.984376    0.961672    0.147024    0.000000
     5  O     c     0.351016    0.266337    0.124311    0.000000
     6  O     c     0.299897    0.043834    0.877757    0.000000
     7  O     c     0.155540    0.794027    0.660336    0.000000
     8  O     c     0.583547    0.804729    0.841200    0.000000
     9  O     c     0.470632    0.139582    0.506169    0.000000
    10  Sr    c     0.616173    0.863300    0.161619    0.000000
    11  Sr    c     0.878146    0.611942    0.900958    0.000000
    12  Sr    c     0.061601    0.579691    0.464207    0.000000
    13  Ti    c     0.497901    0.357224    0.301064    0.000000
    14  Ti    c     0.146355    0.156544    0.991931    0.000000
    15  Ti    c     0.380926    0.939901    0.711555    0.000000
--------------------------------------------------------------------------------

  Final Cartesian lattice vectors (Angstroms) :

        6.333019   -0.529028   -0.197253
       -0.529028    7.249347    0.867758
       -0.394505    1.735517    7.283740


  Final cell parameters and derivatives :

--------------------------------------------------------------------------------
       a            6.358137 Angstrom     dE/de1(xx)     0.003187 eV/strain
       b            7.320239 Angstrom     dE/de2(yy)     0.004023 eV/strain
       c            7.498034 Angstrom     dE/de3(zz)     0.007552 eV/strain
       alpha       69.624078 Degrees      dE/de4(yz)    -0.001738 eV/strain
       beta        95.842972 Degrees      dE/de5(xz)     0.001666 eV/strain
       gamma       99.094335 Degrees      dE/de6(xy)    -0.000121 eV/strain
--------------------------------------------------------------------------------

  Primitive cell volume =           322.620282 Angs**3

  Density of cell =      2.833490 g/cm**3

  Non-primitive cell volume =           322.620282 Angs**3


  Final internal derivatives :

--------------------------------------------------------------------------------
   No.  Atomic          a             b             c           Radius
        Label          (eV)          (eV)          (eV)        (eV/Angs)
--------------------------------------------------------------------------------
      1 O     c       0.000000      0.000000      0.000000      0.000000
      2 O     c       0.001173     -0.000403      0.000234      0.000000
      3 O     c       0.000510     -0.000169     -0.000420      0.000000
      4 O     c       0.000585     -0.000307      0.000402      0.000000
      5 O     c      -0.000391     -0.001103     -0.003307      0.000000
      6 O     c      -0.000128      0.001093      0.001687      0.000000
      7 O     c      -0.001606     -0.000687     -0.000558      0.000000
      8 O     c       0.003071     -0.002788      0.001242      0.000000
      9 O     c       0.000785     -0.000585      0.001012      0.000000
     10 Sr    c       0.000263      0.000616      0.001712      0.000000
     11 Sr    c       0.000284      0.000292      0.000085      0.000000
     12 Sr    c       0.000784     -0.000618     -0.001088      0.000000
     13 Ti    c       0.000352      0.007018      0.001235      0.000000
     14 Ti    c       0.000289     -0.003494     -0.000196      0.000000
     15 Ti    c      -0.002913     -0.001121     -0.000121      0.000000
--------------------------------------------------------------------------------
  Maximum abs         0.003071      0.007018      0.003307      0.000000
--------------------------------------------------------------------------------


  Time to end of optimisation =       0.6958 seconds

 Exiting ------OPTIONS------

  Peak dynamic memory used =       0.60 MB 


  Timing analysis for GULP :

--------------------------------------------------------------------------------
  Task / Subroutine                                          Time (Seconds)
--------------------------------------------------------------------------------
  Calculation of reciprocal space energy and derivatives          0.0476
  Calculation of real space energy and derivatives                0.6324
  Calculation of matrix inversion                                 0.0001
  Global summation overhead                                       0.0003
--------------------------------------------------------------------------------
  Total CPU time                                                  0.6958
--------------------------------------------------------------------------------


  Job Finished at 13:26.38 21st February   2020                               

