********************************************************************************
*                       GENERAL UTILITY LATTICE PROGRAM                        *
*                                 Julian Gale                                  *
*                       Curtin Institute for Computation                       *
*                           Department of Chemistry                            *
*                    Curtin University, Western Australia                      *
********************************************************************************
* Version = 5.1.1 * Last modified =  25th August 2019                          *
********************************************************************************
*  optimise     - perform optimisation run                                     *
*  conp         - constant pressure calculation                                *
*  nosymmetry   - turn off symmetry after initial structure generation         *
*  full         - generate full unit cell when symmetry is removed             *
*  conjugate    - use conjugate gradients minimiser                            *
********************************************************************************
* ASE calculation                                                              *
********************************************************************************


  Job Started  at 13:26.39 21st February   2020                               

  Number of CPUs =     1


  Total number of configurations input =      1

********************************************************************************
*  Input for Configuration =   1                                               *
********************************************************************************

  Formula = O9Sr3Ti3                                                    

  Number of irreducible atoms/shells =      15


  Total number atoms/shells =      15

  Dimensionality = 3               :  Bulk   



  Cartesian lattice vectors (Angstroms) :

        4.000000    0.000000    0.000000
        0.000000    4.000000    0.000000
        0.000000    0.000000    8.000000

  Cell parameters (Angstroms/Degrees):

  a =       4.0000    alpha =  90.0000
  b =       4.0000    beta  =  90.0000
  c =       8.0000    gamma =  90.0000

  Initial cell volume =         128.000000 Angs**3

  Temperature of configuration =  0.000     K 

  Pressure of configuration =         0.000 GPa 

  Fractional coordinates of asymmetric unit :

--------------------------------------------------------------------------------
   No.  Atomic       x           y          z         Charge      Occupancy
        Label      (Frac)      (Frac)     (Frac)        (e)         (Frac)  
--------------------------------------------------------------------------------
      1 O     c    0.000000    0.500000    0.250000    -2.00000    1.000000    
      2 O     c    0.500000 *  0.500000 *  0.250000 *  -2.00000    1.000000    
      3 O     c    0.000000 *  0.500000 *  0.500000 *  -2.00000    1.000000    
      4 O     c    0.500000 *  0.000000 *  0.500000 *  -2.00000    1.000000    
      5 O     c    0.500000 *  0.500000 *  0.750000 *  -2.00000    1.000000    
      6 O     c    0.000000 *  0.000000 *  0.000000 *  -2.00000    1.000000    
      7 O     c    0.000000 *  0.000000 *  0.500000 *  -2.00000    1.000000    
      8 O     c    0.500000 *  0.000000 *  0.000000 *  -2.00000    1.000000    
      9 O     c    0.000000 *  0.500000 *  0.750000 *  -2.00000    1.000000    
     10 Sr    c    0.750000 *  0.250000 *  0.375000 *   2.00000    1.000000    
     11 Sr    c    0.750000 *  0.750000 *  0.875000 *   2.00000    1.000000    
     12 Sr    c    0.750000 *  0.750000 *  0.125000 *   2.00000    1.000000    
     13 Ti    c    0.750000 *  0.250000 *  0.875000 *   4.00000    1.000000    
     14 Ti    c    0.250000 *  0.250000 *  0.125000 *   4.00000    1.000000    
     15 Ti    c    0.250000 *  0.750000 *  0.125000 *   4.00000    1.000000    
--------------------------------------------------------------------------------



********************************************************************************
*  General input information                                                   *
********************************************************************************

  Species output for all configurations : 

--------------------------------------------------------------------------------
  Species    Type    Atomic    Atomic    Charge       Radii (Angs)     Library
                     Number     Mass       (e)     Cova   Ionic  VDW   Symbol
--------------------------------------------------------------------------------
    O        Core        8      16.00  -2.000000   0.730  0.000  1.360          
    Sr       Core       38      87.62   2.000000   1.120  0.000  1.670          
    Ti       Core       22      47.88   4.000000   1.470  0.000  2.190          
--------------------------------------------------------------------------------


  Lattice summation method               =    Ewald          (3-D)
                                         =    Parry          (2-D)
                                         =    Saunders et al (1-D)
  Accuracy factor for lattice sums       =   12.000


  Time limit = Infinity

  Maximum range for interatomic potentials =    100000.000000 Angstroms

  General interatomic potentials :

--------------------------------------------------------------------------------
Atom  Types   Potential      Parameter       Value         Units   Cutoffs(Ang)
  1     2                                                            Min /  Max 
--------------------------------------------------------------------------------
O    c Sr   c Buckingham    Buckingham A     1952.3900    eV        0.000 10.000
                            Buckingham rho  0.33685000    Ang       
                            Buckingham C     19.220000    eV*Ang^6  
--------------------------------------------------------------------------------
O    c Ti   c Buckingham    Buckingham A     4590.7279    eV        0.000 10.000
                            Buckingham rho  0.26100000    Ang       
                            Buckingham C     0.0000000    eV*Ang^6  
--------------------------------------------------------------------------------
O    c O    c Buckingham    Buckingham A     1388.7700    eV        0.000 10.000
                            Buckingham rho  0.36262000    Ang       
                            Buckingham C     175.00000    eV*Ang^6  
--------------------------------------------------------------------------------
 Calling ------OPTIONS------

********************************************************************************
*  Output for configuration   1                                                *
********************************************************************************


  Components of energy : 

--------------------------------------------------------------------------------
  Interatomic potentials     =         252.05488473 eV    
  Monopole - monopole (real) =        -121.78183040 eV    
  Monopole - monopole (recip)=        -176.23510212 eV    
  Monopole - monopole (total)=        -298.01693251 eV    
--------------------------------------------------------------------------------
  Total lattice energy       =         -45.96204778 eV    
--------------------------------------------------------------------------------
  Total lattice energy       =           -4434.6350 kJ/(mole unit cells)
--------------------------------------------------------------------------------


  Number of variables =       48

  Maximum number of calculations  =          1000
  Maximum Hessian update interval =            10
  Maximum step size               =   1.000000000
  Maximum parameter tolerance     =   0.000010000
  Maximum function  tolerance     =   0.000010000
  Maximum gradient  tolerance     =   0.001000000
  Maximum gradient  component     =   0.010000000

  Cell parameters to be optimised using strains

  Conjugate gradient optimiser to be used

  Lower half triangular hessian to be used

  Minimiser to switch to BFGS with exact hessian
  When gradient norm is less than     0.100000

  Start of bulk optimisation :

  Cycle:      0 Energy:       -45.962048  Gnorm:     36.523722  CPU:    0.008
 Perform trimming
 ALPHA BEFORE:    1.0000000000000000     
 XC BEFORE:   0.50000000000000000     
  ** Opt : line minimisation
left   ...       0.00000000     -45.96204778
centre ...       0.25000000    -151.94574012
right  ...       0.50000000    -221.62406934

left   ...       0.00000000     -45.96204778
centre ...       0.25000000    -151.94574012
right  ...       0.50000000    -221.62406934
new    ...       0.85480741    -287.03404440

__s__    ...       0.35480741

left   ...       0.25000000    -151.94574012
centre ...       0.50000000    -221.62406934
right  ...       0.85480741    -287.03404440
new    ...       1.26821821    -314.48515249

__s__    ...       0.41341080

left   ...       0.50000000    -221.62406934
centre ...       0.85480741    -287.03404440
right  ...       1.26821821    -314.48515249
new    ...       1.27774861    -314.41575039

__s__    ...       0.00953040

 ALPHA AFTER:    1.2682182118296077     
 XC AFTER:   0.47906217823453129     
 SANITY CHECK:    1.2682182118296050     
 DIRECTION dim            1  value   -1.6509636567403174E-002
 DIRECTION dim            2  value   -3.3076942582235607E-004
 DIRECTION dim            3  value   -7.8869337607690201E-002
 DIRECTION dim            4  value    6.8184340503957283E-003
 DIRECTION dim            5  value    6.6227869714520753E-003
 DIRECTION dim            6  value   -9.6048413201128852E-003
 DIRECTION dim            7  value   -6.8184340503957283E-003
 DIRECTION dim            8  value   -6.6227869714520710E-003
 DIRECTION dim            9  value   -9.6048413201129269E-003
 DIRECTION dim           10  value   -5.4496109905292139E-003
 DIRECTION dim           11  value   -8.6531488829633182E-003
 DIRECTION dim           12  value    6.0901500990118825E-002
 DIRECTION dim           13  value    1.5140813507536668E-002
 DIRECTION dim           14  value    1.5606705280237741E-002
 DIRECTION dim           15  value    2.7572677937684236E-002
 DIRECTION dim           16  value    6.8184340503957309E-003
 DIRECTION dim           17  value   -6.6227869714520719E-003
 DIRECTION dim           18  value   -9.6048413201129095E-003
 DIRECTION dim           19  value   -1.5140813507536661E-002
 DIRECTION dim           20  value    1.5606705280237741E-002
 DIRECTION dim           21  value    2.7572677937684264E-002
 DIRECTION dim           22  value    5.4496109905292122E-003
 DIRECTION dim           23  value   -8.6531488829633182E-003
 DIRECTION dim           24  value    7.7507495455136979E-002
 DIRECTION dim           25  value   -6.7206105109238997E-003
 DIRECTION dim           26  value   -6.7206105109239031E-003
 DIRECTION dim           27  value    5.9846788820981593E-002
 DIRECTION dim           28  value    2.3294588635054428E-004
 DIRECTION dim           29  value   -2.3294588635053678E-004
 DIRECTION dim           30  value   -8.1269293832197553E-002
 DIRECTION dim           31  value    2.3294588635051515E-004
 DIRECTION dim           32  value   -2.3294588635053637E-004
 DIRECTION dim           33  value    4.4054150107526668E-002
 DIRECTION dim           34  value    5.6371531217289485E-004
 DIRECTION dim           35  value    5.6371531217289854E-004
 DIRECTION dim           36  value  -0.14630557863871513     
 DIRECTION dim           37  value   -5.6371531217290006E-004
 DIRECTION dim           38  value    5.6371531217289887E-004
 DIRECTION dim           39  value    6.6639387431258731E-002
 DIRECTION dim           40  value   -5.6371531217288726E-004
 DIRECTION dim           41  value   -5.6371531217289919E-004
 DIRECTION dim           42  value    6.6639387431258745E-002
 DIRECTION dim           43  value   0.11535151153595628     
 DIRECTION dim           44  value   0.11154815170797851     
 DIRECTION dim           45  value   -2.9418437637588845E-002
 DIRECTION dim           46  value   -4.8481840069290695E-003
 DIRECTION dim           47  value    2.8064460769596021E-003
 DIRECTION dim           48  value    1.8328170557824020E-003
  Cycle:      1 Energy:      -314.485152  Gnorm:     13.410267  CPU:    0.019
 Perform trimming
 ALPHA BEFORE:    1.2682182118296077     
 XC BEFORE:   0.47906217823453129     
  ** Opt : line minimisation
left   ...       0.00000000    -314.48515249
centre ...       0.31705455    -370.80072688
right  ...       0.63410911    -378.00898542

left   ...       0.00000000    -314.48515249
centre ...       0.31705455    -370.80072688
right  ...       0.63410911    -378.00898542
new    ...       0.52212095    -379.91588132

__s__    ...      -0.11198816

left   ...       0.31705455    -370.80072688
centre ...       0.52212095    -379.91588132
right  ...       0.63410911    -378.00898542
new    ...       0.53420707    -379.91549646

__s__    ...       0.01208613

 ALPHA AFTER:   0.52212094790919983     
 XC AFTER:   0.46511941474479107     
 SANITY CHECK:   0.52212094790919972     
 DIRECTION dim            1  value   -2.6704087521431830E-002
 DIRECTION dim            2  value   -3.2488305791041124E-002
 DIRECTION dim            3  value    6.2917832399771237E-002
 DIRECTION dim            4  value    2.8603688170360755E-002
 DIRECTION dim            5  value    1.1739451224732980E-002
 DIRECTION dim            6  value    5.7508345216513948E-002
 DIRECTION dim            7  value   -3.5113305657099095E-002
 DIRECTION dim            8  value   -3.7009924182167461E-002
 DIRECTION dim            9  value   -2.2584057074435990E-002
 DIRECTION dim           10  value   -5.4734525724169361E-003
 DIRECTION dim           11  value   -5.2827824018277077E-002
 DIRECTION dim           12  value   -5.1401375239115872E-002
 DIRECTION dim           13  value    1.2358154483399508E-002
 DIRECTION dim           14  value   -2.5666374587899636E-003
 DIRECTION dim           15  value   0.10035601993251544     
 DIRECTION dim           16  value    2.9013818626501171E-002
 DIRECTION dim           17  value   -1.7023251921347429E-002
 DIRECTION dim           18  value   -1.7365911632977956E-002
 DIRECTION dim           19  value   -1.2702649755257790E-002
 DIRECTION dim           20  value   -5.8038733625580810E-003
 DIRECTION dim           21  value    9.4276717697227244E-002
 DIRECTION dim           22  value   -1.1692685335567581E-004
 DIRECTION dim           23  value   -4.4007556066960156E-002
 DIRECTION dim           24  value    2.3277161525131641E-003
 DIRECTION dim           25  value   -2.8584154455602275E-002
 DIRECTION dim           26  value    6.0196119948449520E-002
 DIRECTION dim           27  value  -0.11719087316772724     
 DIRECTION dim           28  value    9.5922051841630003E-003
 DIRECTION dim           29  value    7.1046795800668805E-002
 DIRECTION dim           30  value   -1.2284143828804175E-002
 DIRECTION dim           31  value    5.9804192546281240E-003
 DIRECTION dim           32  value    6.5713266960116576E-002
 DIRECTION dim           33  value   -4.4057448066428299E-002
 DIRECTION dim           34  value    2.1142218201455988E-002
 DIRECTION dim           35  value    1.9969832983672157E-002
 DIRECTION dim           36  value   0.13820736438802078     
 DIRECTION dim           37  value   -1.5136748842856738E-002
 DIRECTION dim           38  value   -3.8445731465097992E-002
 DIRECTION dim           39  value  -0.10189637275726510     
 DIRECTION dim           40  value   -1.5982720334272348E-002
 DIRECTION dim           41  value    4.0577342980032620E-002
 DIRECTION dim           42  value   -5.3689550797780400E-002
 DIRECTION dim           43  value   0.18462576285259719     
 DIRECTION dim           44  value   0.23290923007090639     
 DIRECTION dim           45  value   -3.7155954126658675E-002
 DIRECTION dim           46  value   -3.0389143512325405E-002
 DIRECTION dim           47  value    2.6325887851393143E-002
 DIRECTION dim           48  value    1.2501459268404765E-002
  Cycle:      2 Energy:      -379.915881  Gnorm:      8.568949  CPU:    0.026
 ALPHA BEFORE:   0.52212094790919983     
 XC BEFORE:   0.46511941474479107     
  ** Opt : line minimisation
left   ...       0.00000000    -379.91588132
centre ...       0.13053024    -397.25641924
right  ...       0.26106047    -408.42393032

left   ...       0.00000000    -379.91588132
centre ...       0.13053024    -397.25641924
right  ...       0.26106047    -408.42393032
new    ...       0.43193524    -415.52115264

__s__    ...       0.17087477

left   ...       0.13053024    -397.25641924
centre ...       0.26106047    -408.42393032
right  ...       0.43193524    -415.52115264
new    ...       0.48869066    -416.29538504

__s__    ...       0.05675542

left   ...       0.26106047    -408.42393032
centre ...       0.43193524    -415.52115264
right  ...       0.48869066    -416.29538504
new    ...       0.51597605    -416.41812379

__s__    ...       0.02728539

 ALPHA AFTER:   0.51597605100345589     
 XC AFTER:   0.44892285325528419     
 SANITY CHECK:   0.51597605100345689     
 DIRECTION dim            1  value   -3.1390141961062386E-002
 DIRECTION dim            2  value    9.8314850885025794E-003
 DIRECTION dim            3  value   -1.0710355785062235E-002
 DIRECTION dim            4  value   -6.0106446359193336E-003
 DIRECTION dim            5  value   -2.1598734070486281E-002
 DIRECTION dim            6  value   0.10358564132795949     
 DIRECTION dim            7  value    2.4156311683519359E-002
 DIRECTION dim            8  value   -1.5865267219825546E-002
 DIRECTION dim            9  value   -3.9575061761710453E-002
 DIRECTION dim           10  value    3.1176474396752616E-002
 DIRECTION dim           11  value   -4.6491685254783630E-002
 DIRECTION dim           12  value    2.4481900961122086E-002
 DIRECTION dim           13  value    5.4559123435763178E-003
 DIRECTION dim           14  value   -1.7281078077829862E-002
 DIRECTION dim           15  value   -1.8595908436158194E-002
 DIRECTION dim           16  value   -2.7067474489217862E-002
 DIRECTION dim           17  value    2.0832535501901041E-002
 DIRECTION dim           18  value   -3.9686881881675559E-002
 DIRECTION dim           19  value   -1.7978500339707812E-002
 DIRECTION dim           20  value   -2.1028166625932872E-002
 DIRECTION dim           21  value   -7.2993577461316003E-003
 DIRECTION dim           22  value   -3.1312632909232939E-002
 DIRECTION dim           23  value   -4.4408221853462881E-002
 DIRECTION dim           24  value   0.10696975273710832     
 DIRECTION dim           25  value   -2.1745520300772658E-002
 DIRECTION dim           26  value    3.1495247965372626E-002
 DIRECTION dim           27  value   -6.1844540135965187E-003
 DIRECTION dim           28  value    9.4025662149380476E-003
 DIRECTION dim           29  value    2.2097201092984835E-002
 DIRECTION dim           30  value   -8.8841849048534829E-002
 DIRECTION dim           31  value   -1.0597633455343952E-002
 DIRECTION dim           32  value   -1.6222045430418643E-002
 DIRECTION dim           33  value    5.2487317733740442E-002
 DIRECTION dim           34  value    3.9178493884269180E-002
 DIRECTION dim           35  value    6.1037718861389825E-002
 DIRECTION dim           36  value   -4.4121684979353933E-002
 DIRECTION dim           37  value   -2.0230175978723536E-002
 DIRECTION dim           38  value   0.11301745792220957     
 DIRECTION dim           39  value    3.6089541905674427E-002
 DIRECTION dim           40  value   -9.6881014000857850E-003
 DIRECTION dim           41  value   -5.7034508168600208E-002
 DIRECTION dim           42  value   0.13252121589513202     
 DIRECTION dim           43  value   0.20387573713336782     
 DIRECTION dim           44  value   0.26737183439209466     
 DIRECTION dim           45  value   -3.8921888898379282E-002
 DIRECTION dim           46  value   -3.0856399230038925E-002
 DIRECTION dim           47  value    3.8718943483006703E-002
 DIRECTION dim           48  value    1.3614811901468319E-002
  Cycle:      3 Energy:      -416.418124  Gnorm:      6.097445  CPU:    0.031
 ALPHA BEFORE:   0.51597605100345589     
 XC BEFORE:   0.44892285325528419     
  ** Opt : line minimisation
left   ...       0.00000000    -416.41812379
centre ...       0.12899401    -426.11071668
right  ...       0.25798803    -432.87290986

left   ...       0.00000000    -416.41812379
centre ...       0.12899401    -426.11071668
right  ...       0.25798803    -432.87290986
new    ...       0.49115773    -437.37092697

__s__    ...       0.23316970

left   ...       0.12899401    -426.11071668
centre ...       0.25798803    -432.87290986
right  ...       0.49115773    -437.37092697
new    ...       0.48000647    -437.38732200

__s__    ...      -0.01115126

 ALPHA AFTER:   0.48000647124612084     
 XC AFTER:   0.43997944953295415     
 SANITY CHECK:   0.48000647124612145     
 DIRECTION dim            1  value   -1.8631839898142436E-002
 DIRECTION dim            2  value    5.3115670431692824E-002
 DIRECTION dim            3  value    6.4006823514183867E-002
 DIRECTION dim            4  value   -4.5329973968257692E-002
 DIRECTION dim            5  value   -4.2302099349844316E-002
 DIRECTION dim            6  value    6.3546522224756860E-002
 DIRECTION dim            7  value    2.2423500914652200E-002
 DIRECTION dim            8  value   -2.4770406527952708E-002
 DIRECTION dim            9  value   -5.0567284619700253E-002
 DIRECTION dim           10  value    6.3613857244780733E-002
 DIRECTION dim           11  value   -4.6442305032241671E-002
 DIRECTION dim           12  value   -2.9507637822222630E-002
 DIRECTION dim           13  value    1.9796780482156169E-002
 DIRECTION dim           14  value   -5.9646729763124509E-003
 DIRECTION dim           15  value    3.4950495165444337E-002
 DIRECTION dim           16  value   -2.9018502468502436E-002
 DIRECTION dim           17  value    1.4734411522347106E-002
 DIRECTION dim           18  value   -5.3394160131510555E-002
 DIRECTION dim           19  value   -2.9062898507656726E-002
 DIRECTION dim           20  value   -7.0932111676660567E-003
 DIRECTION dim           21  value    3.8360656335741469E-002
 DIRECTION dim           22  value   -5.2557227164229177E-002
 DIRECTION dim           23  value   -5.0611862586231654E-002
 DIRECTION dim           24  value    7.4420601940685213E-002
 DIRECTION dim           25  value   -1.9921962608144963E-002
 DIRECTION dim           26  value    1.0461092376106469E-002
 DIRECTION dim           27  value   -2.5422640098392596E-002
 DIRECTION dim           28  value    7.5348356678397472E-003
 DIRECTION dim           29  value    2.8148629250655324E-003
 DIRECTION dim           30  value   -4.7012160008442577E-002
 DIRECTION dim           31  value   -1.5007070530001772E-002
 DIRECTION dim           32  value   -1.3976872671091836E-003
 DIRECTION dim           33  value    1.1647125234794230E-002
 DIRECTION dim           34  value    8.5561516504814028E-002
 DIRECTION dim           35  value    9.9492318657003337E-002
 DIRECTION dim           36  value    5.6186472814585685E-002
 DIRECTION dim           37  value   -6.1786817217174300E-002
 DIRECTION dim           38  value   -5.1498167887802093E-002
 DIRECTION dim           39  value  -0.11319151509086962     
 DIRECTION dim           40  value   -1.4469728804700169E-002
 DIRECTION dim           41  value    4.7946162765314576E-002
 DIRECTION dim           42  value   0.10948357358086330     
 DIRECTION dim           43  value   0.14993021826669287     
 DIRECTION dim           44  value   0.21170954779960091     
 DIRECTION dim           45  value   -5.0355087500491912E-002
 DIRECTION dim           46  value   -3.7929260294046099E-002
 DIRECTION dim           47  value    4.6142048327176652E-002
 DIRECTION dim           48  value    6.9592553673696652E-003
  Cycle:      4 Energy:      -437.387322  Gnorm:      3.021298  CPU:    0.035
 ALPHA BEFORE:   0.48000647124612084     
 XC BEFORE:   0.43997944953295415     
  ** Opt : line minimisation
left   ...       0.00000000    -437.38732200
centre ...       0.12000162    -439.56411347
right  ...       0.24000324    -441.10247142

left   ...       0.00000000    -437.38732200
centre ...       0.12000162    -439.56411347
right  ...       0.24000324    -441.10247142
new    ...       0.46915617    -442.12422413

__s__    ...       0.22915293

left   ...       0.12000162    -439.56411347
centre ...       0.24000324    -441.10247142
right  ...       0.46915617    -442.12422413
new    ...       0.44768361    -442.14244666

__s__    ...      -0.02147255

 ALPHA AFTER:   0.44768361479788837     
 XC AFTER:   0.41963552933930892     
 SANITY CHECK:   0.44768361479788871     
 DIRECTION dim            1  value   -4.5442628501893449E-002
 DIRECTION dim            2  value    1.0089713011947060E-002
 DIRECTION dim            3  value    3.2670065883287899E-002
 DIRECTION dim            4  value   -3.6367179271288179E-002
 DIRECTION dim            5  value   -8.8458040914808286E-003
 DIRECTION dim            6  value    1.6621809914641881E-002
 DIRECTION dim            7  value   -1.8323877115085558E-002
 DIRECTION dim            8  value   -4.0597996994085381E-002
 DIRECTION dim            9  value    1.8180215269950225E-002
 DIRECTION dim           10  value    2.1279413658881523E-002
 DIRECTION dim           11  value   -1.7317796509184868E-002
 DIRECTION dim           12  value   -2.8417602415609620E-002
 DIRECTION dim           13  value    2.3960900672575403E-003
 DIRECTION dim           14  value    5.7493385035003739E-003
 DIRECTION dim           15  value   -1.2469208433018120E-002
 DIRECTION dim           16  value    1.0749295130120970E-002
 DIRECTION dim           17  value   -2.9011754512089018E-002
 DIRECTION dim           18  value    1.5035306222524209E-002
 DIRECTION dim           19  value   -2.2376704734418856E-002
 DIRECTION dim           20  value    2.3991405301326235E-002
 DIRECTION dim           21  value   -9.4538134821131204E-003
 DIRECTION dim           22  value    3.0375794759145609E-002
 DIRECTION dim           23  value   -2.9338518900999377E-002
 DIRECTION dim           24  value    6.2988588225462924E-002
 DIRECTION dim           25  value   -1.5515778199291192E-002
 DIRECTION dim           26  value   -1.4990529291649197E-002
 DIRECTION dim           27  value   -2.3605196155871928E-002
 DIRECTION dim           28  value   -7.1998925062849066E-003
 DIRECTION dim           29  value    1.2367018407024742E-002
 DIRECTION dim           30  value   -1.3114094353440695E-002
 DIRECTION dim           31  value   -4.0741931615155217E-003
 DIRECTION dim           32  value    5.4012520328079808E-003
 DIRECTION dim           33  value   -1.6266545326837030E-002
 DIRECTION dim           34  value    2.4835336823894542E-002
 DIRECTION dim           35  value    2.1686832578995528E-002
 DIRECTION dim           36  value   -1.2812407044210295E-002
 DIRECTION dim           37  value   -9.3398165386739569E-003
 DIRECTION dim           38  value   -8.4560467399391846E-003
 DIRECTION dim           39  value   -3.8540511465851926E-002
 DIRECTION dim           40  value    2.0764992172098980E-003
 DIRECTION dim           41  value    5.1372751471080273E-002
 DIRECTION dim           42  value    1.9189862528288460E-002
 DIRECTION dim           43  value    3.1669422520681903E-002
 DIRECTION dim           44  value    1.3673688067515753E-002
 DIRECTION dim           45  value    2.7959387655927245E-002
 DIRECTION dim           46  value   -1.2099837828990503E-002
 DIRECTION dim           47  value    3.3055691319954290E-002
 DIRECTION dim           48  value    1.9443406047727153E-003
  Cycle:      5 Energy:      -442.142447  Gnorm:      3.216024  CPU:    0.039
 ALPHA BEFORE:   0.44768361479788837     
 XC BEFORE:   0.41963552933930892     
  ** Opt : line minimisation
left   ...       0.00000000    -442.14244666
centre ...       0.11192090    -444.32214878
right  ...       0.22384181    -445.55860860

left   ...       0.00000000    -442.14244666
centre ...       0.11192090    -444.32214878
right  ...       0.22384181    -445.55860860
new    ...       0.31459414    -445.79577918

__s__    ...       0.09075233

 ALPHA AFTER:   0.31459413622145116     
 XC AFTER:   0.39972643952056741     
 SANITY CHECK:   0.31459413622145077     
 DIRECTION dim            1  value   -6.3284999707454812E-002
 DIRECTION dim            2  value    1.7226067644514145E-002
 DIRECTION dim            3  value    3.4932457438495351E-002
 DIRECTION dim            4  value   -3.2427785807608536E-002
 DIRECTION dim            5  value    1.7930374126823939E-002
 DIRECTION dim            6  value   -1.0022962473356125E-002
 DIRECTION dim            7  value   -3.7478121711611474E-002
 DIRECTION dim            8  value   -6.7611817887499467E-002
 DIRECTION dim            9  value    2.7163315437897420E-002
 DIRECTION dim           10  value    3.0689249329517061E-002
 DIRECTION dim           11  value   -2.3514681004267471E-002
 DIRECTION dim           12  value   -3.7934984191490058E-002
 DIRECTION dim           13  value   -1.0497106300108690E-002
 DIRECTION dim           14  value   -1.3754505749108189E-003
 DIRECTION dim           15  value   -2.0686731751980776E-002
 DIRECTION dim           16  value    2.1983986224261579E-002
 DIRECTION dim           17  value   -5.4329568788500732E-002
 DIRECTION dim           18  value    3.0551223989835626E-002
 DIRECTION dim           19  value   -2.7715531133437547E-002
 DIRECTION dim           20  value    4.5982868631914295E-002
 DIRECTION dim           21  value   -1.0452110944854071E-002
 DIRECTION dim           22  value    2.6416508240144656E-002
 DIRECTION dim           23  value   -5.9538112485345893E-002
 DIRECTION dim           24  value   -1.7886673781933496E-002
 DIRECTION dim           25  value   -2.4810996353273610E-002
 DIRECTION dim           26  value   -2.6090247714519246E-002
 DIRECTION dim           27  value   -3.8243331186196355E-002
 DIRECTION dim           28  value   -1.9968342314530031E-002
 DIRECTION dim           29  value    2.5606545786147024E-002
 DIRECTION dim           30  value   -2.2761492352030659E-002
 DIRECTION dim           31  value   -4.3558538155663825E-003
 DIRECTION dim           32  value    3.1708392119934878E-003
 DIRECTION dim           33  value   -2.8894684192068504E-002
 DIRECTION dim           34  value    3.7794415372216332E-002
 DIRECTION dim           35  value    1.4973349217054684E-003
 DIRECTION dim           36  value    7.0880145253166077E-002
 DIRECTION dim           37  value   -2.1612718547070111E-003
 DIRECTION dim           38  value    1.9681807086050947E-002
 DIRECTION dim           39  value   -2.5789840092216458E-002
 DIRECTION dim           40  value    6.9813731006423511E-003
 DIRECTION dim           41  value    6.1868303658378268E-002
 DIRECTION dim           42  value    1.7313825020129490E-002
 DIRECTION dim           43  value    3.2852297458116325E-002
 DIRECTION dim           44  value   -8.8711163938409530E-003
 DIRECTION dim           45  value    5.4765187756933051E-002
 DIRECTION dim           46  value   -2.9339852443764587E-002
 DIRECTION dim           47  value    3.9818245078859331E-002
 DIRECTION dim           48  value    7.6114054533981089E-003
  Cycle:      6 Energy:      -445.795779  Gnorm:      2.259055  CPU:    0.042
 ALPHA BEFORE:   0.31459413622145116     
 XC BEFORE:   0.39972643952056741     
  ** Opt : line minimisation
left   ...       0.00000000    -445.79577918
centre ...       0.07864853    -446.58237916
right  ...       0.15729707    -447.21935784

left   ...       0.00000000    -445.79577918
centre ...       0.07864853    -446.58237916
right  ...       0.15729707    -447.21935784
new    ...       0.45280102    -448.19755165

__s__    ...       0.29550396

left   ...       0.07864853    -446.58237916
centre ...       0.15729707    -447.21935784
right  ...       0.45280102    -448.19755165
new    ...       0.43436551    -448.20507453

__s__    ...      -0.01843552

 ALPHA AFTER:   0.43436550891310094     
 XC AFTER:   0.38914309906198769     
 SANITY CHECK:   0.43436550891310310     
 DIRECTION dim            1  value   -2.4365057172845126E-002
 DIRECTION dim            2  value    1.6480082711358715E-002
 DIRECTION dim            3  value   -7.3543634581482130E-003
 DIRECTION dim            4  value   -2.5577845090582037E-002
 DIRECTION dim            5  value    4.9620577024598739E-003
 DIRECTION dim            6  value    2.4118686895401715E-002
 DIRECTION dim            7  value   -2.4430017751898195E-002
 DIRECTION dim            8  value   -3.9559355207177453E-002
 DIRECTION dim            9  value   -1.8400312353611739E-004
 DIRECTION dim           10  value    2.8036007667455377E-002
 DIRECTION dim           11  value   -1.9187532895648431E-002
 DIRECTION dim           12  value   -2.2044877498665037E-003
 DIRECTION dim           13  value   -1.9878896875733444E-002
 DIRECTION dim           14  value   -3.6853873874675381E-003
 DIRECTION dim           15  value   -5.0784252399699720E-003
 DIRECTION dim           16  value    9.3105309999147266E-003
 DIRECTION dim           17  value   -3.1028173694365727E-002
 DIRECTION dim           18  value    1.1411591953198592E-002
 DIRECTION dim           19  value   -6.7020084191494085E-003
 DIRECTION dim           20  value    4.0657243300465620E-002
 DIRECTION dim           21  value    9.8761724791895378E-003
 DIRECTION dim           22  value    2.2810339810993084E-002
 DIRECTION dim           23  value   -3.6508707874803183E-002
 DIRECTION dim           24  value   -3.8077821370318121E-002
 DIRECTION dim           25  value   -1.4927168294046422E-002
 DIRECTION dim           26  value   -1.3780957781829717E-002
 DIRECTION dim           27  value   -7.4515085146029791E-003
 DIRECTION dim           28  value   -2.3538291296455988E-002
 DIRECTION dim           29  value    1.5844587239888835E-002
 DIRECTION dim           30  value   -3.0320326018767975E-002
 DIRECTION dim           31  value   -2.0508005189254705E-003
 DIRECTION dim           32  value   -4.9960281846553704E-003
 DIRECTION dim           33  value   -1.2760233756380720E-002
 DIRECTION dim           34  value    1.0114070882808267E-002
 DIRECTION dim           35  value    7.7312236759343022E-003
 DIRECTION dim           36  value   -1.5976177032095348E-002
 DIRECTION dim           37  value    1.2666624336745457E-002
 DIRECTION dim           38  value    2.7336217487977623E-002
 DIRECTION dim           39  value    2.8983232629113342E-002
 DIRECTION dim           40  value    5.1588624473115447E-003
 DIRECTION dim           41  value    5.0416922774626782E-003
 DIRECTION dim           42  value    2.5462082258383600E-002
 DIRECTION dim           43  value    2.3392665334236805E-002
 DIRECTION dim           44  value   -2.4236831598932713E-002
 DIRECTION dim           45  value    4.1834969124394966E-002
 DIRECTION dim           46  value   -2.4758496112329102E-002
 DIRECTION dim           47  value    3.1724339347242406E-002
 DIRECTION dim           48  value    6.7217247810549500E-003
  Cycle:      7 Energy:      -448.205075  Gnorm:      2.196026  CPU:    0.046
 ALPHA BEFORE:   0.43436550891310094     
 XC BEFORE:   0.38914309906198769     
  ** Opt : line minimisation
left   ...       0.00000000    -448.20507453
centre ...       0.10859138    -449.24822229
right  ...       0.21718275    -450.05251924

left   ...       0.00000000    -448.20507453
centre ...       0.10859138    -449.24822229
right  ...       0.21718275    -450.05251924
new    ...       0.52855347    -451.13930305

__s__    ...       0.31137071

left   ...       0.10859138    -449.24822229
centre ...       0.21718275    -450.05251924
right  ...       0.52855347    -451.13930305
new    ...       0.56000859    -451.15649231

__s__    ...       0.03145512

 ALPHA AFTER:   0.56000859419336890     
 XC AFTER:   0.38313956312642955     
 SANITY CHECK:   0.56000859419336702     
 DIRECTION dim            1  value   -1.0720435360827974E-002
 DIRECTION dim            2  value    1.5719261348575961E-002
 DIRECTION dim            3  value   -2.3610369521547516E-002
 DIRECTION dim            4  value   -1.0377472247509383E-002
 DIRECTION dim            5  value    2.9962112297456996E-002
 DIRECTION dim            6  value   -2.0979208190973469E-002
 DIRECTION dim            7  value   -9.7328385458219160E-003
 DIRECTION dim            8  value   -3.0187203588400643E-002
 DIRECTION dim            9  value   -6.1103494359137306E-003
 DIRECTION dim           10  value    1.5548278243603775E-002
 DIRECTION dim           11  value   -2.2466494760785702E-002
 DIRECTION dim           12  value    5.5767879730571112E-003
 DIRECTION dim           13  value   -2.2152394164326572E-002
 DIRECTION dim           14  value    1.1666389902093431E-003
 DIRECTION dim           15  value    1.9776549526479677E-002
 DIRECTION dim           16  value   -4.6456066730124288E-003
 DIRECTION dim           17  value   -1.6520194606362084E-002
 DIRECTION dim           18  value    5.5115910379143146E-003
 DIRECTION dim           19  value    2.2268201857178690E-003
 DIRECTION dim           20  value    5.2017447875175440E-002
 DIRECTION dim           21  value    3.8560775049844898E-002
 DIRECTION dim           22  value    4.7677782178337756E-002
 DIRECTION dim           23  value   -3.4699053019686128E-002
 DIRECTION dim           24  value   -1.0705377322268166E-002
 DIRECTION dim           25  value   -1.4076672875723409E-002
 DIRECTION dim           26  value   -1.1101756808106066E-002
 DIRECTION dim           27  value    1.7977350036125174E-003
 DIRECTION dim           28  value   -3.5626793955460645E-002
 DIRECTION dim           29  value    1.5438466359953062E-002
 DIRECTION dim           30  value   -3.6179428935044104E-002
 DIRECTION dim           31  value   -9.3383228345135017E-004
 DIRECTION dim           32  value   -9.8454815905566623E-003
 DIRECTION dim           33  value   -1.8034351796244564E-002
 DIRECTION dim           34  value    3.1702844421006579E-003
 DIRECTION dim           35  value   -1.7707409248915628E-002
 DIRECTION dim           36  value   -5.5787785974443886E-003
 DIRECTION dim           37  value   -2.7307130788037180E-003
 DIRECTION dim           38  value    3.2264018831113635E-002
 DIRECTION dim           39  value    1.3561118163991366E-002
 DIRECTION dim           40  value   -3.7051042325281945E-003
 DIRECTION dim           41  value   -3.3048295711269673E-002
 DIRECTION dim           42  value    1.7156920775707050E-002
 DIRECTION dim           43  value    4.0503758154623030E-002
 DIRECTION dim           44  value   -2.9885872397140655E-002
 DIRECTION dim           45  value    5.7313130548741625E-002
 DIRECTION dim           46  value   -3.9176631560061223E-002
 DIRECTION dim           47  value    3.2256377151585587E-002
 DIRECTION dim           48  value    1.0999838989235504E-002
  Cycle:      8 Energy:      -451.156492  Gnorm:      2.187116  CPU:    0.051
 ALPHA BEFORE:   0.56000859419336890     
 XC BEFORE:   0.38313956312642955     
  ** Opt : line minimisation
left   ...       0.00000000    -451.15649231
centre ...       0.14000215    -452.45330858
right  ...       0.28000430    -453.18608453

left   ...       0.00000000    -451.15649231
centre ...       0.14000215    -452.45330858
right  ...       0.28000430    -453.18608453
new    ...       0.39188775    -453.36400562

__s__    ...       0.11188345

 ALPHA AFTER:   0.39188774860696490     
 XC AFTER:   0.38345093115992973     
 SANITY CHECK:   0.39188774860690256     
 DIRECTION dim            1  value    7.9453372708650390E-004
 DIRECTION dim            2  value    1.4380012812695075E-002
 DIRECTION dim            3  value   -3.0786691963977965E-002
 DIRECTION dim            4  value   -1.6629839390125190E-002
 DIRECTION dim            5  value    1.2094657572560695E-002
 DIRECTION dim            6  value    1.1485333916379965E-002
 DIRECTION dim            7  value    7.7202991911082160E-003
 DIRECTION dim            8  value   -2.3527723793273430E-002
 DIRECTION dim            9  value   -7.2303996215626956E-004
 DIRECTION dim           10  value    5.8695407071043433E-003
 DIRECTION dim           11  value   -2.7330382923870567E-002
 DIRECTION dim           12  value    6.5662727720306128E-003
 DIRECTION dim           13  value   -1.6221296338671903E-002
 DIRECTION dim           14  value    5.7981577090550612E-003
 DIRECTION dim           15  value    4.3880143170745983E-002
 DIRECTION dim           16  value   -1.3551374801980846E-002
 DIRECTION dim           17  value   -1.1825894583807062E-004
 DIRECTION dim           18  value    4.5643522625309829E-003
 DIRECTION dim           19  value    3.9660810856417053E-003
 DIRECTION dim           20  value    5.8948203746838401E-002
 DIRECTION dim           21  value    5.5991359934440030E-002
 DIRECTION dim           22  value    3.8440280801167008E-002
 DIRECTION dim           23  value   -2.0201815572947007E-002
 DIRECTION dim           24  value   -4.8100214393611701E-002
 DIRECTION dim           25  value   -1.1613439018650603E-002
 DIRECTION dim           26  value   -1.0070800324460396E-002
 DIRECTION dim           27  value    2.5705616990214378E-003
 DIRECTION dim           28  value   -4.8900680742269081E-002
 DIRECTION dim           29  value    8.9961238376896797E-003
 DIRECTION dim           30  value   -3.9703465613824866E-002
 DIRECTION dim           31  value   -2.2893177364576335E-003
 DIRECTION dim           32  value   -1.0924150195742244E-002
 DIRECTION dim           33  value   -2.3615992958751816E-002
 DIRECTION dim           34  value    5.7569015183603467E-002
 DIRECTION dim           35  value   -1.1253816204830000E-003
 DIRECTION dim           36  value   -7.8447522517080710E-004
 DIRECTION dim           37  value   -1.4786060196573084E-002
 DIRECTION dim           38  value    8.4631389335771585E-003
 DIRECTION dim           39  value   -9.2140142897224730E-003
 DIRECTION dim           40  value   -3.0805992526094034E-002
 DIRECTION dim           41  value   -4.9072378544970582E-002
 DIRECTION dim           42  value    6.2958227638072514E-003
 DIRECTION dim           43  value    4.4631051008950443E-002
 DIRECTION dim           44  value   -3.0445233497288629E-002
 DIRECTION dim           45  value    5.6472249682782603E-002
 DIRECTION dim           46  value   -4.3811685320702849E-002
 DIRECTION dim           47  value    3.1791887381190466E-002
 DIRECTION dim           48  value    1.0727438025993500E-002
  Cycle:      9 Energy:      -453.364006  Gnorm:      2.014606  CPU:    0.057
 ALPHA BEFORE:   0.39188774860696490     
 XC BEFORE:   0.38345093115992973     
  ** Opt : line minimisation
left   ...       0.00000000    -453.36400562
centre ...       0.09797194    -453.97478327
right  ...       0.19594387    -454.01768205

left   ...       0.00000000    -453.36400562
centre ...       0.09797194    -453.97478327
right  ...       0.19594387    -454.01768205
new    ...       0.15435892    -454.06639445

__s__    ...      -0.04158496

 ALPHA AFTER:   0.15435891522753653     
 XC AFTER:   0.38336861706481767     
 SANITY CHECK:   0.15435891522748099     
 DIRECTION dim            1  value   -5.3326427560565341E-004
 DIRECTION dim            2  value    3.0647813117605505E-003
 DIRECTION dim            3  value   -6.9039706389958412E-003
 DIRECTION dim            4  value   -3.1577370024125239E-004
 DIRECTION dim            5  value   -8.9681748715746759E-003
 DIRECTION dim            6  value    2.1467842776463634E-002
 DIRECTION dim            7  value   -1.0781510421789375E-002
 DIRECTION dim            8  value   -5.8479328292818161E-003
 DIRECTION dim            9  value   -1.1627064048223643E-002
 DIRECTION dim           10  value    3.2576696258831681E-002
 DIRECTION dim           11  value   -9.7673992452100723E-003
 DIRECTION dim           12  value    7.0643710719984903E-003
 DIRECTION dim           13  value    1.2607253307263467E-002
 DIRECTION dim           14  value    1.3896479878044765E-002
 DIRECTION dim           15  value    1.0027172162134522E-002
 DIRECTION dim           16  value   -1.4106034659529972E-004
 DIRECTION dim           17  value    7.5282182664029350E-003
 DIRECTION dim           18  value    3.1172697121419454E-003
 DIRECTION dim           19  value   -8.6730315589385962E-003
 DIRECTION dim           20  value    2.0915137507551687E-003
 DIRECTION dim           21  value   -1.0261620643043827E-003
 DIRECTION dim           22  value    1.9316667215155507E-002
 DIRECTION dim           23  value    3.5625223149911536E-003
 DIRECTION dim           24  value    3.0806076718283705E-002
 DIRECTION dim           25  value    1.8380655103349777E-003
 DIRECTION dim           26  value   -1.3338440202395692E-003
 DIRECTION dim           27  value    2.6874410203986169E-003
 DIRECTION dim           28  value   -1.1205501730131878E-002
 DIRECTION dim           29  value   -7.2060515401280887E-003
 DIRECTION dim           30  value    1.6284967847869450E-003
 DIRECTION dim           31  value   -8.5582093247547567E-003
 DIRECTION dim           32  value    6.9057157663903856E-004
 DIRECTION dim           33  value   -2.5286095233012606E-003
 DIRECTION dim           34  value   -1.8982962967829444E-002
 DIRECTION dim           35  value    1.7614187940064537E-002
 DIRECTION dim           36  value   -5.0349378192175269E-002
 DIRECTION dim           37  value    3.1574691331040226E-003
 DIRECTION dim           38  value   -3.4443001058739132E-002
 DIRECTION dim           39  value   -1.0518608427567244E-002
 DIRECTION dim           40  value   -1.1528071795469991E-002
 DIRECTION dim           41  value    9.0109284719571622E-003
 DIRECTION dim           42  value    8.5571192384633621E-003
 DIRECTION dim           43  value   -1.2779890853273957E-002
 DIRECTION dim           44  value   -3.5282771083487161E-003
 DIRECTION dim           45  value    6.1933716061728736E-003
 DIRECTION dim           46  value   -5.3860625109768048E-003
 DIRECTION dim           47  value    3.1435695483100945E-003
 DIRECTION dim           48  value   -3.1926984353189885E-004
  Cycle:     10 Energy:      -454.066394  Gnorm:      1.335786  CPU:    0.062
 ALPHA BEFORE:   0.15435891522753653     
 XC BEFORE:   0.38336861706481767     
  ** Opt : line minimisation
left   ...       0.00000000    -454.06639445
centre ...       0.03858973    -454.21730861
right  ...       0.07717946    -454.35655197

left   ...       0.00000000    -454.06639445
centre ...       0.03858973    -454.21730861
right  ...       0.07717946    -454.35655197
new    ...       0.51829540    -455.04353402

__s__    ...       0.44111594

left   ...       0.03858973    -454.21730861
centre ...       0.07717946    -454.35655197
right  ...       0.51829540    -455.04353402
new    ...       0.47986977    -455.05496181

__s__    ...      -0.03842563

 ALPHA AFTER:   0.47986976874625675     
 XC AFTER:   0.38314850037953074     
 SANITY CHECK:   0.47986976874631238     
 DIRECTION dim            1  value   -4.5870088016171210E-004
 DIRECTION dim            2  value    5.0445740258901525E-003
 DIRECTION dim            3  value   -5.6602017366571946E-003
 DIRECTION dim            4  value    4.6674384133473740E-003
 DIRECTION dim            5  value    4.9859944102785382E-003
 DIRECTION dim            6  value   -6.7190567779576785E-005
 DIRECTION dim            7  value   -1.1727500726643733E-002
 DIRECTION dim            8  value   -7.3500838992060242E-003
 DIRECTION dim            9  value   -1.0279100105365126E-002
 DIRECTION dim           10  value    3.1519978802791865E-002
 DIRECTION dim           11  value   -1.3366528362143028E-002
 DIRECTION dim           12  value    3.3764789741830433E-003
 DIRECTION dim           13  value    1.5786457458131942E-002
 DIRECTION dim           14  value    1.5695252814324441E-002
 DIRECTION dim           15  value    1.7072996061054828E-002
 DIRECTION dim           16  value   -3.6777898395467536E-003
 DIRECTION dim           17  value    1.1623403848763092E-002
 DIRECTION dim           18  value    9.2255154288376200E-003
 DIRECTION dim           19  value   -8.3188793334309664E-003
 DIRECTION dim           20  value    4.0669088627497672E-004
 DIRECTION dim           21  value    8.7915150921457795E-004
 DIRECTION dim           22  value    2.2960527331535125E-003
 DIRECTION dim           23  value    8.2100350266630113E-003
 DIRECTION dim           24  value   -6.7816822648819677E-003
 DIRECTION dim           25  value    1.9487590522987742E-003
 DIRECTION dim           26  value   -1.5752613041539226E-003
 DIRECTION dim           27  value   -1.5791141571941461E-003
 DIRECTION dim           28  value   -1.6506327114315305E-002
 DIRECTION dim           29  value   -8.8253297109460518E-003
 DIRECTION dim           30  value    2.4417727758848672E-003
 DIRECTION dim           31  value   -1.0818980650555105E-002
 DIRECTION dim           32  value    3.0826749769231594E-004
 DIRECTION dim           33  value   -5.8038003804994293E-003
 DIRECTION dim           34  value    7.5920923636626971E-003
 DIRECTION dim           35  value    3.9691483633235583E-003
 DIRECTION dim           36  value    6.7536771667410476E-003
 DIRECTION dim           37  value    1.1030700640740488E-003
 DIRECTION dim           38  value   -3.9937652020026325E-002
 DIRECTION dim           39  value   -1.1889715811718046E-002
 DIRECTION dim           40  value   -1.4910693035818837E-002
 DIRECTION dim           41  value    6.8744611176264400E-003
 DIRECTION dim           42  value   -1.9906824286820071E-003
 DIRECTION dim           43  value   -1.5569302393046994E-002
 DIRECTION dim           44  value   -1.4934417277955941E-003
 DIRECTION dim           45  value    9.0425594802636799E-003
 DIRECTION dim           46  value   -1.2249484803216451E-002
 DIRECTION dim           47  value   -7.2401913416310533E-004
 DIRECTION dim           48  value    5.9781807424281476E-004
  Cycle:     11 Energy:      -455.054962  Gnorm:      1.170089  CPU:    0.068
 ALPHA BEFORE:   0.47986976874625675     
 XC BEFORE:   0.38314850037953074     
  ** Opt : line minimisation
left   ...       0.00000000    -455.05496181
centre ...       0.11996744    -455.37670949
right  ...       0.23993488    -455.61344471

left   ...       0.00000000    -455.05496181
centre ...       0.11996744    -455.37670949
right  ...       0.23993488    -455.61344471
new    ...       0.51402597    -455.84693844

__s__    ...       0.27409109

left   ...       0.11996744    -455.37670949
centre ...       0.23993488    -455.61344471
right  ...       0.51402597    -455.84693844
new    ...       0.52664982    -455.84770630

__s__    ...       0.01262384

 ALPHA AFTER:   0.52664981774159758     
 XC AFTER:   0.38339116162059167     
 SANITY CHECK:   0.52664981774161812     
 DIRECTION dim            1  value    4.6076393247700581E-004
 DIRECTION dim            2  value    6.1945450498778389E-003
 DIRECTION dim            3  value   -1.0566991271259922E-002
 DIRECTION dim            4  value    6.9734493444719974E-003
 DIRECTION dim            5  value    9.3403580380126885E-003
 DIRECTION dim            6  value    1.0299477182169055E-003
 DIRECTION dim            7  value   -7.8441632770150354E-003
 DIRECTION dim            8  value   -6.7447597018330131E-003
 DIRECTION dim            9  value   -3.5611661209234888E-003
 DIRECTION dim           10  value    5.8192054889327875E-003
 DIRECTION dim           11  value   -1.9688092770427698E-002
 DIRECTION dim           12  value    3.3636495786258953E-003
 DIRECTION dim           13  value    9.5979777973553559E-003
 DIRECTION dim           14  value    9.3120679817156916E-003
 DIRECTION dim           15  value    1.7868962115505795E-002
 DIRECTION dim           16  value   -1.0328572760794158E-002
 DIRECTION dim           17  value    1.5115889477067188E-002
 DIRECTION dim           18  value    1.5306439183681650E-002
 DIRECTION dim           19  value    4.5965718735468293E-003
 DIRECTION dim           20  value   -8.3535886056884424E-003
 DIRECTION dim           21  value    7.1703951680761010E-004
 DIRECTION dim           22  value    8.8398180337048333E-003
 DIRECTION dim           23  value    2.4683780174584295E-003
 DIRECTION dim           24  value   -1.5379164893071433E-003
 DIRECTION dim           25  value    2.6403577639673142E-003
 DIRECTION dim           26  value   -2.9084609578688535E-004
 DIRECTION dim           27  value   -1.4662461576497835E-003
 DIRECTION dim           28  value   -2.2564356508636033E-002
 DIRECTION dim           29  value   -9.8294807461458723E-003
 DIRECTION dim           30  value   -2.0296715310482343E-003
 DIRECTION dim           31  value   -1.2202138938201672E-002
 DIRECTION dim           32  value   -6.9266475826508945E-004
 DIRECTION dim           33  value   -5.8811418802437905E-003
 DIRECTION dim           34  value    3.9368857855867627E-002
 DIRECTION dim           35  value    5.6827831433863621E-003
 DIRECTION dim           36  value   -2.3771972225036424E-003
 DIRECTION dim           37  value   -5.4311006373885780E-003
 DIRECTION dim           38  value   -1.6445969299506875E-002
 DIRECTION dim           39  value    9.9309698476339817E-004
 DIRECTION dim           40  value   -2.0027934267687758E-002
 DIRECTION dim           41  value   -4.1546814662752739E-003
 DIRECTION dim           42  value   -1.3557779300068523E-002
 DIRECTION dim           43  value   -4.0362420730006019E-003
 DIRECTION dim           44  value   -3.2088318238807801E-003
 DIRECTION dim           45  value    1.3719298188188563E-002
 DIRECTION dim           46  value   -1.8357804330585595E-002
 DIRECTION dim           47  value    1.8231011969264735E-003
 DIRECTION dim           48  value    1.3167132992362219E-003
  Cycle:     12 Energy:      -455.847706  Gnorm:      1.587657  CPU:    0.074
 Perform trimming
 ALPHA BEFORE:   0.52664981774159758     
 XC BEFORE:   0.38339116162059167     
  ** Opt : line minimisation
left   ...       0.00000000    -455.84770630
centre ...       0.13166245    -456.31666169
right  ...       0.26332491    -456.54907495

left   ...       0.00000000    -455.84770630
centre ...       0.13166245    -456.31666169
right  ...       0.26332491    -456.54907495
new    ...       0.32685795    -456.58266993

__s__    ...       0.06353304

 ALPHA AFTER:   0.32685795164805498     
 XC AFTER:   0.38265545039724425     
 SANITY CHECK:   0.32685795164805359     
 DIRECTION dim            1  value   -2.2508591871113655E-003
 DIRECTION dim            2  value    7.4339133123849698E-003
 DIRECTION dim            3  value   -1.8923783513661148E-002
 DIRECTION dim            4  value    1.1829960771327582E-002
 DIRECTION dim            5  value    1.8069359158030228E-002
 DIRECTION dim            6  value    1.2843776535909890E-003
 DIRECTION dim            7  value   -1.5518426511223357E-002
 DIRECTION dim            8  value   -1.1228345288187128E-002
 DIRECTION dim            9  value   -7.8928155288731251E-003
 DIRECTION dim           10  value    2.2278844852301111E-002
 DIRECTION dim           11  value   -3.1275032593778493E-002
 DIRECTION dim           12  value    4.8910530516667935E-003
 DIRECTION dim           13  value    3.3850981809237591E-003
 DIRECTION dim           14  value   -1.4252547985998318E-003
 DIRECTION dim           15  value    2.9245168750656674E-002
 DIRECTION dim           16  value   -1.5185492911389905E-002
 DIRECTION dim           17  value    1.9851837761544370E-002
 DIRECTION dim           18  value    1.8181446254876880E-002
 DIRECTION dim           19  value    1.2702000394033195E-002
 DIRECTION dim           20  value   -1.5398968153898183E-002
 DIRECTION dim           21  value   -9.4161182282670873E-005
 DIRECTION dim           22  value    2.6618129934684754E-002
 DIRECTION dim           23  value   -3.6283443628092483E-003
 DIRECTION dim           24  value    2.1584098439011316E-002
 DIRECTION dim           25  value    3.3054778495908281E-003
 DIRECTION dim           26  value   -2.2159689784553513E-004
 DIRECTION dim           27  value    7.4732166537362676E-004
 DIRECTION dim           28  value   -3.6478649569393617E-002
 DIRECTION dim           29  value   -1.2798760467016631E-002
 DIRECTION dim           30  value   -4.9062410444076932E-003
 DIRECTION dim           31  value   -1.9325162649912565E-002
 DIRECTION dim           32  value   -1.2669101643697032E-003
 DIRECTION dim           33  value   -9.1129912611228100E-003
 DIRECTION dim           34  value    3.6631912474285537E-002
 DIRECTION dim           35  value    5.0347357780536903E-003
 DIRECTION dim           36  value   -3.2995796483572808E-002
 DIRECTION dim           37  value   -3.4207578157453264E-004
 DIRECTION dim           38  value   -1.7981112020871957E-004
 DIRECTION dim           39  value    7.7560726892398520E-003
 DIRECTION dim           40  value   -2.7361311811151211E-002
 DIRECTION dim           41  value   -5.4518578787210465E-003
 DIRECTION dim           42  value   -1.0340805702654020E-002
 DIRECTION dim           43  value   -7.0221613608070976E-003
 DIRECTION dim           44  value   -8.0637659307379803E-003
 DIRECTION dim           45  value    2.3220666272788289E-002
 DIRECTION dim           46  value   -3.2015711889185471E-002
 DIRECTION dim           47  value    6.7459299934222892E-003
 DIRECTION dim           48  value    4.2973964501697888E-003
  Cycle:     13 Energy:      -456.582670  Gnorm:      1.742252  CPU:    0.079
 ALPHA BEFORE:   0.32685795164805498     
 XC BEFORE:   0.38265545039724425     
  ** Opt : line minimisation
left   ...       0.00000000    -456.58266993
centre ...       0.08171449    -457.09389229
right  ...       0.16342898    -457.47685696

left   ...       0.00000000    -456.58266993
centre ...       0.08171449    -457.09389229
right  ...       0.16342898    -457.47685696
new    ...       0.36656307    -457.94678013

__s__    ...       0.20313409

left   ...       0.08171449    -457.09389229
centre ...       0.16342898    -457.47685696
right  ...       0.36656307    -457.94678013
new    ...       0.40382616    -457.96740162

__s__    ...       0.03726309

 ALPHA AFTER:   0.40382616310448660     
 XC AFTER:   0.37862636495800062     
 SANITY CHECK:   0.40382616310448904     
 DIRECTION dim            1  value   -9.9772768764393137E-003
 DIRECTION dim            2  value    4.1049003060136292E-003
 DIRECTION dim            3  value   -2.3002213402839339E-002
 DIRECTION dim            4  value    1.9237112634944067E-002
 DIRECTION dim            5  value    4.0869055253215922E-002
 DIRECTION dim            6  value   -1.8926499109687991E-002
 DIRECTION dim            7  value   -2.7389884365286991E-002
 DIRECTION dim            8  value   -1.7314685027665533E-002
 DIRECTION dim            9  value   -1.2877711035391627E-002
 DIRECTION dim           10  value    5.2600566265839963E-002
 DIRECTION dim           11  value   -4.0469950271654537E-002
 DIRECTION dim           12  value   -2.8894186498286322E-003
 DIRECTION dim           13  value   -6.0613901578692540E-003
 DIRECTION dim           14  value   -2.1665203396262850E-002
 DIRECTION dim           15  value    4.7382353583644093E-002
 DIRECTION dim           16  value   -1.8920295519291537E-002
 DIRECTION dim           17  value    2.2689391336321699E-002
 DIRECTION dim           18  value    1.8430342848029090E-002
 DIRECTION dim           19  value    1.8082487295181773E-002
 DIRECTION dim           20  value   -1.7335704356792842E-002
 DIRECTION dim           21  value   -1.7588907361606092E-003
 DIRECTION dim           22  value    2.3623176203366500E-002
 DIRECTION dim           23  value   -7.7128524292159467E-003
 DIRECTION dim           24  value   -4.9493040833362631E-003
 DIRECTION dim           25  value    2.9159531736142139E-003
 DIRECTION dim           26  value   -1.4661472720184936E-003
 DIRECTION dim           27  value    4.9849798899747797E-004
 DIRECTION dim           28  value   -5.0619753112732813E-002
 DIRECTION dim           29  value   -1.1675132044302865E-002
 DIRECTION dim           30  value   -5.8310615888490080E-003
 DIRECTION dim           31  value   -2.5930747427018140E-002
 DIRECTION dim           32  value   -2.1894487483640479E-003
 DIRECTION dim           33  value   -1.5528010389937119E-002
 DIRECTION dim           34  value    3.9199770179922461E-002
 DIRECTION dim           35  value   -2.2210266070755987E-002
 DIRECTION dim           36  value   -6.9689615441156233E-004
 DIRECTION dim           37  value    1.3720785422546721E-002
 DIRECTION dim           38  value    2.1264594588838913E-002
 DIRECTION dim           39  value    1.3565645206326405E-002
 DIRECTION dim           40  value   -2.9486118441739598E-002
 DIRECTION dim           41  value    9.3618336235295422E-004
 DIRECTION dim           42  value   -2.7225483267232196E-003
 DIRECTION dim           43  value   -1.7995906027913254E-002
 DIRECTION dim           44  value   -1.5255324307322978E-002
 DIRECTION dim           45  value    2.8273090192688144E-002
 DIRECTION dim           46  value   -4.9960675641784649E-002
 DIRECTION dim           47  value    8.5094526283038593E-003
 DIRECTION dim           48  value    9.7891342338770615E-003
  Cycle:     14 Energy:      -457.967402  Gnorm:      1.579740  CPU:    0.085
 ALPHA BEFORE:   0.40382616310448660     
 XC BEFORE:   0.37862636495800062     
  ** Opt : line minimisation
left   ...       0.00000000    -457.96740162
centre ...       0.10095654    -458.50516544
right  ...       0.20191308    -458.91961970

left   ...       0.00000000    -457.96740162
centre ...       0.10095654    -458.50516544
right  ...       0.20191308    -458.91961970
new    ...       0.49075862    -459.38395041

__s__    ...       0.28884554

left   ...       0.10095654    -458.50516544
centre ...       0.20191308    -458.91961970
right  ...       0.49075862    -459.38395041
new    ...       0.47177401    -459.38811924

__s__    ...      -0.01898461

 ALPHA AFTER:   0.47177401355014514     
 XC AFTER:   0.36934488824884026     
 SANITY CHECK:   0.47177401355014120     
 DIRECTION dim            1  value   -1.9673564975138030E-002
 DIRECTION dim            2  value   -7.8794654237566847E-003
 DIRECTION dim            3  value   -2.2553766424379125E-002
 DIRECTION dim            4  value    1.9455794196590843E-002
 DIRECTION dim            5  value    1.9709245670360559E-002
 DIRECTION dim            6  value    2.2718736686594021E-002
 DIRECTION dim            7  value   -3.2866860399019683E-002
 DIRECTION dim            8  value   -2.0433120816255014E-002
 DIRECTION dim            9  value   -1.1144589894392225E-002
 DIRECTION dim           10  value    6.7867502049009654E-002
 DIRECTION dim           11  value   -4.2784184451460976E-002
 DIRECTION dim           12  value   -1.1649627697148945E-002
 DIRECTION dim           13  value   -1.5737909187140001E-003
 DIRECTION dim           14  value   -2.4792396533937822E-002
 DIRECTION dim           15  value    5.0445719782588626E-002
 DIRECTION dim           16  value   -1.9205056728599484E-002
 DIRECTION dim           17  value    2.4859162098443306E-002
 DIRECTION dim           18  value    2.0338832466544242E-002
 DIRECTION dim           19  value    1.2559865131934023E-002
 DIRECTION dim           20  value   -3.1153751697620777E-003
 DIRECTION dim           21  value   -1.0926952855232335E-002
 DIRECTION dim           22  value    2.3189120237704558E-002
 DIRECTION dim           23  value   -1.6269603330754289E-002
 DIRECTION dim           24  value   -1.7423321423062500E-002
 DIRECTION dim           25  value    4.3186175216646198E-003
 DIRECTION dim           26  value   -4.2936260747116449E-003
 DIRECTION dim           27  value    3.3731554498824022E-003
 DIRECTION dim           28  value   -5.2793447481903420E-002
 DIRECTION dim           29  value   -7.0046665091320695E-003
 DIRECTION dim           30  value   -4.9664803464449740E-003
 DIRECTION dim           31  value   -2.5422136444080354E-002
 DIRECTION dim           32  value   -3.3859648302466002E-003
 DIRECTION dim           33  value   -1.8794672986622876E-002
 DIRECTION dim           34  value    3.9958707297075929E-002
 DIRECTION dim           35  value   -1.4531654069225092E-002
 DIRECTION dim           36  value   -3.7143924789338340E-002
 DIRECTION dim           37  value    1.9875744806091271E-002
 DIRECTION dim           38  value    1.7811403771124928E-002
 DIRECTION dim           39  value    1.5422454728552137E-002
 DIRECTION dim           40  value   -3.1557041659231386E-002
 DIRECTION dim           41  value    1.7180331811713166E-002
 DIRECTION dim           42  value    6.5903216482534888E-003
 DIRECTION dim           43  value   -2.5786702715184989E-002
 DIRECTION dim           44  value   -3.3830899820021833E-002
 DIRECTION dim           45  value    1.8227719747753932E-002
 DIRECTION dim           46  value   -4.9990425783484081E-002
 DIRECTION dim           47  value    1.0578908598291607E-002
 DIRECTION dim           48  value    1.2662446736251609E-002
  Cycle:     15 Energy:      -459.388119  Gnorm:      1.612718  CPU:    0.092
 ALPHA BEFORE:   0.47177401355014514     
 XC BEFORE:   0.36934488824884026     
  ** Opt : line minimisation
left   ...       0.00000000    -459.38811924
centre ...       0.11794350    -460.00001674
right  ...       0.23588701    -460.43650124

left   ...       0.00000000    -459.38811924
centre ...       0.11794350    -460.00001674
right  ...       0.23588701    -460.43650124
new    ...       0.47039699    -460.52884564

__s__    ...       0.23450999

 ALPHA AFTER:   0.47039699268810148     
 XC AFTER:   0.36060638158484332     
 SANITY CHECK:   0.47039699268810253     
 DIRECTION dim            1  value   -1.8576876127673350E-002
 DIRECTION dim            2  value   -1.2717102706775604E-002
 DIRECTION dim            3  value   -1.0555617911559912E-002
 DIRECTION dim            4  value    2.1705869998600739E-002
 DIRECTION dim            5  value    1.9077630991884500E-002
 DIRECTION dim            6  value    2.2699312223798590E-002
 DIRECTION dim            7  value   -2.7473675764710499E-002
 DIRECTION dim            8  value   -2.0072784430704191E-002
 DIRECTION dim            9  value   -7.1360207933727181E-004
 DIRECTION dim           10  value    4.8220322454951725E-002
 DIRECTION dim           11  value   -4.7709983511644766E-002
 DIRECTION dim           12  value   -2.4527535893675213E-002
 DIRECTION dim           13  value    9.5480367238524565E-003
 DIRECTION dim           14  value   -2.3396129057044111E-002
 DIRECTION dim           15  value    5.4655239686519808E-002
 DIRECTION dim           16  value   -1.8850252149980932E-002
 DIRECTION dim           17  value    3.1755372662480512E-002
 DIRECTION dim           18  value    3.1202066395996542E-002
 DIRECTION dim           19  value    6.6827851573142642E-003
 DIRECTION dim           20  value    1.4166886025517720E-002
 DIRECTION dim           21  value   -1.3255110475280619E-002
 DIRECTION dim           22  value    2.6430263269962416E-002
 DIRECTION dim           23  value   -2.7120468674343819E-002
 DIRECTION dim           24  value   -2.3229164218729354E-002
 DIRECTION dim           25  value    6.1049219327233778E-003
 DIRECTION dim           26  value   -7.7501205724472277E-003
 DIRECTION dim           27  value    3.1271504893862030E-003
 DIRECTION dim           28  value   -4.8654241878713617E-002
 DIRECTION dim           29  value   -6.0441177845533926E-004
 DIRECTION dim           30  value    6.7045428895871305E-003
 DIRECTION dim           31  value   -1.9429075947427578E-002
 DIRECTION dim           32  value   -8.3681892055227462E-003
 DIRECTION dim           33  value   -2.7877191813564489E-002
 DIRECTION dim           34  value    6.4017171389708624E-002
 DIRECTION dim           35  value   -3.0313331874709699E-002
 DIRECTION dim           36  value   -2.3703842696313669E-002
 DIRECTION dim           37  value    9.4316195863829808E-003
 DIRECTION dim           38  value    2.8094149354653108E-003
 DIRECTION dim           39  value   -2.2717051526406781E-002
 DIRECTION dim           40  value   -4.3111725456736381E-002
 DIRECTION dim           41  value    3.5432351739701523E-002
 DIRECTION dim           42  value   -1.1306810325015990E-002
 DIRECTION dim           43  value   -1.6422114579186999E-002
 DIRECTION dim           44  value   -4.6277074053327705E-002
 DIRECTION dim           45  value    8.7631377388464465E-003
 DIRECTION dim           46  value   -5.0684472954288788E-002
 DIRECTION dim           47  value    7.4227700527734744E-003
 DIRECTION dim           48  value    1.8208038529410539E-002
  Cycle:     16 Energy:      -460.528846  Gnorm:      1.716570  CPU:    0.097
 ALPHA BEFORE:   0.47039699268810148     
 XC BEFORE:   0.36060638158484332     
  ** Opt : line minimisation
left   ...       0.00000000    -460.52884564
centre ...       0.11759925    -460.91867994
right  ...       0.23519850    -461.06899080

left   ...       0.00000000    -460.52884564
centre ...       0.11759925    -460.91867994
right  ...       0.23519850    -461.06899080
new    ...       0.25019725    -461.06834619

__s__    ...       0.01499876

 ALPHA AFTER:   0.23519849634405074     
 XC AFTER:   0.35963062235925797     
 SANITY CHECK:   0.23519849634404288     
 DIRECTION dim            1  value   -4.1486626859979191E-003
 DIRECTION dim            2  value    3.1009965706621685E-003
 DIRECTION dim            3  value   -1.6777701586176898E-002
 DIRECTION dim            4  value    2.4750671349514548E-002
 DIRECTION dim            5  value    2.3651224111339571E-002
 DIRECTION dim            6  value    1.9909621627203642E-002
 DIRECTION dim            7  value   -2.4097222158638062E-002
 DIRECTION dim            8  value   -1.3197876784564877E-002
 DIRECTION dim            9  value   -2.9811119334219679E-004
 DIRECTION dim           10  value    2.9556136256527091E-002
 DIRECTION dim           11  value   -4.7090666056259986E-002
 DIRECTION dim           12  value   -2.5176678356512567E-002
 DIRECTION dim           13  value    8.4698370072357615E-003
 DIRECTION dim           14  value   -1.2058854164232623E-002
 DIRECTION dim           15  value    1.8435478567512043E-002
 DIRECTION dim           16  value   -1.1531833090304500E-002
 DIRECTION dim           17  value    4.2761622763186007E-002
 DIRECTION dim           18  value    4.1167409723574161E-002
 DIRECTION dim           19  value    2.4973038533654592E-003
 DIRECTION dim           20  value    2.0431930869362871E-002
 DIRECTION dim           21  value   -1.9804124910288070E-002
 DIRECTION dim           22  value    3.9940185600572956E-002
 DIRECTION dim           23  value   -4.0252834918531516E-002
 DIRECTION dim           24  value   -1.1004365922077410E-003
 DIRECTION dim           25  value    4.6339041419424876E-003
 DIRECTION dim           26  value   -7.0401289732745257E-003
 DIRECTION dim           27  value    7.9965193647777797E-003
 DIRECTION dim           28  value   -3.8311302940945813E-002
 DIRECTION dim           29  value    5.4615096436360687E-003
 DIRECTION dim           30  value    1.8909375435018794E-002
 DIRECTION dim           31  value   -1.3541441365650213E-002
 DIRECTION dim           32  value   -1.7241834917658329E-002
 DIRECTION dim           33  value   -3.2255928632731017E-002
 DIRECTION dim           34  value    5.2868169190845304E-002
 DIRECTION dim           35  value   -5.6468205255385415E-002
 DIRECTION dim           36  value   -4.2131584923044266E-002
 DIRECTION dim           37  value   -2.1242787563909224E-003
 DIRECTION dim           38  value   -9.1030278311256749E-003
 DIRECTION dim           39  value   -3.6084475527515730E-002
 DIRECTION dim           40  value   -2.9304761292718064E-002
 DIRECTION dim           41  value    2.7717854307377360E-002
 DIRECTION dim           42  value    1.8521428875425301E-002
 DIRECTION dim           43  value   -4.1579848612531434E-003
 DIRECTION dim           44  value   -4.7101833287191745E-002
 DIRECTION dim           45  value    6.5690197586669484E-003
 DIRECTION dim           46  value   -5.3619649791557887E-002
 DIRECTION dim           47  value    2.4735830717588217E-003
 DIRECTION dim           48  value    2.0758239150198157E-002
  Cycle:     17 Energy:      -461.068991  Gnorm:      1.775465  CPU:    0.101
 ALPHA BEFORE:   0.23519849634405074     
 XC BEFORE:   0.35963062235925797     
  ** Opt : line minimisation
left   ...       0.00000000    -461.06899080
centre ...       0.05879962    -461.45224796
right  ...       0.11759925    -461.75520069

left   ...       0.00000000    -461.06899080
centre ...       0.05879962    -461.45224796
right  ...       0.11759925    -461.75520069
new    ...       0.31002416    -462.27870193

__s__    ...       0.19242491

left   ...       0.05879962    -461.45224796
centre ...       0.11759925    -461.75520069
right  ...       0.31002416    -462.27870193
new    ...       0.35434232    -462.31323308

__s__    ...       0.04431816

 ALPHA AFTER:   0.35434232019560935     
 XC AFTER:   0.36381622811959569     
 SANITY CHECK:   0.35434232019561085     
 DIRECTION dim            1  value    1.1812322496582118E-002
 DIRECTION dim            2  value    1.7454971531942257E-002
 DIRECTION dim            3  value   -1.3531349426169868E-002
 DIRECTION dim            4  value    9.8935039358950330E-003
 DIRECTION dim            5  value    4.9350452266218184E-003
 DIRECTION dim            6  value    7.1526601214226895E-003
 DIRECTION dim            7  value    5.3446186392518136E-005
 DIRECTION dim            8  value    6.4580074450346411E-003
 DIRECTION dim            9  value    7.4409437538813829E-003
 DIRECTION dim           10  value   -6.0658012365045755E-003
 DIRECTION dim           11  value   -6.6454288912882221E-003
 DIRECTION dim           12  value   -3.6475431510320732E-003
 DIRECTION dim           13  value   -6.7620017489211726E-003
 DIRECTION dim           14  value    1.4375046110938681E-002
 DIRECTION dim           15  value   -3.7158528136778328E-002
 DIRECTION dim           16  value    1.2109766991058450E-002
 DIRECTION dim           17  value    2.3721830653018330E-002
 DIRECTION dim           18  value    1.3459338311789720E-002
 DIRECTION dim           19  value    6.2858259688751297E-004
 DIRECTION dim           20  value    4.6692550072235653E-003
 DIRECTION dim           21  value   -9.2870804668639464E-003
 DIRECTION dim           22  value    1.2813855157031206E-002
 DIRECTION dim           23  value   -2.0557683408534290E-002
 DIRECTION dim           24  value   -8.7817700723785645E-003
 DIRECTION dim           25  value   -2.3754281360123955E-003
 DIRECTION dim           26  value    9.4879383388214809E-004
 DIRECTION dim           27  value    2.2691579657883503E-003
 DIRECTION dim           28  value    9.3876388250551702E-004
 DIRECTION dim           29  value    6.7636611707714827E-003
 DIRECTION dim           30  value    1.7010788642524602E-002
 DIRECTION dim           31  value    2.4371133906008796E-003
 DIRECTION dim           32  value   -1.3195238991675165E-002
 DIRECTION dim           33  value   -1.2043958783885735E-002
 DIRECTION dim           34  value   -6.8267734545504628E-003
 DIRECTION dim           35  value   -3.9698127942840833E-002
 DIRECTION dim           36  value   -1.6939328217824783E-002
 DIRECTION dim           37  value   -6.0354788720647706E-003
 DIRECTION dim           38  value   -6.0169637406582857E-003
 DIRECTION dim           39  value   -3.1910873369457703E-003
 DIRECTION dim           40  value    1.2215354092605792E-002
 DIRECTION dim           41  value   -1.6645850978751420E-002
 DIRECTION dim           42  value    3.4128864140660839E-002
 DIRECTION dim           43  value    8.8856394958465000E-003
 DIRECTION dim           44  value   -1.1115655064651543E-002
 DIRECTION dim           45  value   -1.7867031690693292E-003
 DIRECTION dim           46  value   -1.6770068303470158E-002
 DIRECTION dim           47  value   -5.7230924346573335E-003
 DIRECTION dim           48  value    4.3247266764416675E-003
  Cycle:     18 Energy:      -462.313233  Gnorm:      1.438907  CPU:    0.108
 ALPHA BEFORE:   0.35434232019560935     
 XC BEFORE:   0.36381622811959569     
  ** Opt : line minimisation
left   ...       0.00000000    -462.31323308
centre ...       0.08858558    -462.71202976
right  ...       0.17717116    -463.02897950

left   ...       0.00000000    -462.31323308
centre ...       0.08858558    -462.71202976
right  ...       0.17717116    -463.02897950
new    ...       0.47592326    -463.50075329

__s__    ...       0.29875210

left   ...       0.08858558    -462.71202976
centre ...       0.17717116    -463.02897950
right  ...       0.47592326    -463.50075329
new    ...       0.47955910    -463.50083454

__s__    ...       0.00363584

 ALPHA AFTER:   0.47955909762469262     
 XC AFTER:   0.36796909486195534     
 SANITY CHECK:   0.47955909762468535     
 DIRECTION dim            1  value    8.6597601065839559E-003
 DIRECTION dim            2  value    1.5506377220599759E-002
 DIRECTION dim            3  value   -3.1250587461567458E-003
 DIRECTION dim            4  value    8.5568982194703068E-003
 DIRECTION dim            5  value   -3.7243293895998252E-003
 DIRECTION dim            6  value    3.2858098816572708E-003
 DIRECTION dim            7  value    1.2694706156820459E-002
 DIRECTION dim            8  value    1.1154919134523676E-002
 DIRECTION dim            9  value    2.3563477377184755E-002
 DIRECTION dim           10  value   -1.6472905985459758E-002
 DIRECTION dim           11  value   -2.7575463304831821E-004
 DIRECTION dim           12  value   -5.3989304394513379E-003
 DIRECTION dim           13  value   -3.7373829191988820E-004
 DIRECTION dim           14  value    7.2065425802833143E-003
 DIRECTION dim           15  value   -1.1711337564368955E-002
 DIRECTION dim           16  value    2.4055235715145663E-002
 DIRECTION dim           17  value    2.3031540594445385E-002
 DIRECTION dim           18  value    3.5888744606073428E-003
 DIRECTION dim           19  value    4.3958969067898930E-003
 DIRECTION dim           20  value    3.0666814238924410E-003
 DIRECTION dim           21  value   -2.9075040189363056E-003
 DIRECTION dim           22  value    5.3142132912254152E-003
 DIRECTION dim           23  value   -2.3203241497104829E-002
 DIRECTION dim           24  value   -2.4059849418322222E-002
 DIRECTION dim           25  value   -4.6442796611202057E-003
 DIRECTION dim           26  value    1.9254608018117686E-003
 DIRECTION dim           27  value   -5.2667730252558866E-003
 DIRECTION dim           28  value    7.9090056633021634E-003
 DIRECTION dim           29  value    8.2922656534007381E-003
 DIRECTION dim           30  value    2.6731958752361878E-002
 DIRECTION dim           31  value    9.3370925076154392E-003
 DIRECTION dim           32  value   -1.3537189839083662E-002
 DIRECTION dim           33  value   -1.5468934593057305E-002
 DIRECTION dim           34  value   -1.3890798385116393E-002
 DIRECTION dim           35  value   -3.4953594809843537E-002
 DIRECTION dim           36  value   -2.3508448564651388E-003
 DIRECTION dim           37  value   -8.1245473267992155E-003
 DIRECTION dim           38  value   -5.3135648291071178E-003
[...]
centre ...       0.58333333    -472.52749965
right  ...       1.16666667    -472.52933218
new    ...       1.10194861    -472.52942733

__s__    ...      -0.06471806

 ALPHA AFTER:    1.1019486065132271     
 XC AFTER:   0.40090164885250323     
 SANITY CHECK:    1.1019486065131456     
 DIRECTION dim            1  value   -3.9089336226673046E-004
 DIRECTION dim            2  value    6.6428721306759078E-003
 DIRECTION dim            3  value    4.2374803783349260E-003
 DIRECTION dim            4  value   -3.3381052950512166E-003
 DIRECTION dim            5  value    9.8602351104934236E-003
 DIRECTION dim            6  value    2.9437462190947928E-003
 DIRECTION dim            7  value   -2.0425690494582770E-003
 DIRECTION dim            8  value    1.0018284600440202E-002
 DIRECTION dim            9  value    3.0234965490482739E-003
 DIRECTION dim           10  value   -1.6047299731451630E-003
 DIRECTION dim           11  value    3.8967692904650544E-003
 DIRECTION dim           12  value    1.8361292944808192E-003
 DIRECTION dim           13  value    8.3287691482204166E-004
 DIRECTION dim           14  value    5.8984501855776001E-004
 DIRECTION dim           15  value   -4.6344438761642521E-004
 DIRECTION dim           16  value   -1.7426250121613048E-003
 DIRECTION dim           17  value    4.4726615596824351E-003
 DIRECTION dim           18  value   -1.2589679462955343E-003
 DIRECTION dim           19  value   -1.0205284976723017E-003
 DIRECTION dim           20  value    6.6965312192805706E-003
 DIRECTION dim           21  value    1.4463861649749703E-003
 DIRECTION dim           22  value   -1.0836432259247672E-003
 DIRECTION dim           23  value    5.4940729168382321E-003
 DIRECTION dim           24  value    1.3035170720921987E-003
 DIRECTION dim           25  value   -1.5421571392597534E-003
 DIRECTION dim           26  value    5.2531694293248927E-003
 DIRECTION dim           27  value    1.4726491812798895E-003
 DIRECTION dim           28  value   -8.7998270996704269E-004
 DIRECTION dim           29  value    7.0770861594087629E-003
 DIRECTION dim           30  value    1.7015418129117392E-003
 DIRECTION dim           31  value   -1.8598411776573325E-003
 DIRECTION dim           32  value    3.0535388938495293E-003
 DIRECTION dim           33  value    1.4047201989692104E-003
 DIRECTION dim           34  value   -1.2739769149641845E-003
 DIRECTION dim           35  value    6.9523041415115285E-003
 DIRECTION dim           36  value    1.7563667780317546E-003
 DIRECTION dim           37  value   -1.1179443330549914E-003
 DIRECTION dim           38  value    3.7304151062398498E-003
 DIRECTION dim           39  value    8.6519321842659289E-004
 DIRECTION dim           40  value   -1.2632198035157599E-003
 DIRECTION dim           41  value    5.3992767857213913E-003
 DIRECTION dim           42  value    1.2526432966511554E-003
 DIRECTION dim           43  value    1.5022526099657035E-003
 DIRECTION dim           44  value   -5.5816790851780452E-003
 DIRECTION dim           45  value    7.0140076450770413E-004
 DIRECTION dim           46  value   -4.7367103763062135E-003
 DIRECTION dim           47  value   -8.8585626678899850E-003
 DIRECTION dim           48  value   -1.2843303955216052E-002
  Cycle:     86 Energy:      -472.529427  Gnorm:      0.017156  CPU:    0.460
 ALPHA BEFORE:    10.102635842287340     
 XC BEFORE:   0.40090164885250323     
  ** Opt : line minimisation
left   ...       0.00000000    -472.52942733
centre ...       1.00000000    -472.53007372
right  ...       2.00000000    -472.52987281

left   ...       0.00000000    -472.52942733
centre ...       1.00000000    -472.53007372
right  ...       2.00000000    -472.52987281
new    ...       1.26288213    -472.53010304

__s__    ...      -0.73711787

 ALPHA AFTER:    1.2628821269309880     
 XC AFTER:   0.40113151826627091     
 SANITY CHECK:    1.2628821269311896     
 DIRECTION dim            1  value    1.8201969040947976E-004
 DIRECTION dim            2  value   -2.8703881792053890E-004
 DIRECTION dim            3  value   -1.8863122210435886E-004
 DIRECTION dim            4  value    2.5233851077578919E-004
 DIRECTION dim            5  value   -1.0197201493844310E-003
 DIRECTION dim            6  value   -2.9973530289951328E-004
 DIRECTION dim            7  value    4.4624555826848966E-004
 DIRECTION dim            8  value   -8.8696474049690258E-004
 DIRECTION dim            9  value   -1.2144229036274072E-004
 DIRECTION dim           10  value    2.7424720672895658E-004
 DIRECTION dim           11  value   -7.0956544206155804E-004
 DIRECTION dim           12  value   -2.7854573041167369E-005
 DIRECTION dim           13  value    1.8547902355272932E-004
 DIRECTION dim           14  value    6.5309153002953102E-005
 DIRECTION dim           15  value    1.9490657741545996E-004
 DIRECTION dim           16  value    3.3172303694990919E-004
 DIRECTION dim           17  value   -6.8538063902053286E-004
 DIRECTION dim           18  value    9.0180799024248655E-005
 DIRECTION dim           19  value    1.7053467195691190E-004
 DIRECTION dim           20  value   -2.9930801973653497E-004
 DIRECTION dim           21  value   -2.5873355548315039E-004
 DIRECTION dim           22  value    1.5620860561110599E-004
 DIRECTION dim           23  value   -4.7014174290619607E-004
 DIRECTION dim           24  value   -3.6095152787320135E-005
 DIRECTION dim           25  value    3.0784961989136059E-004
 DIRECTION dim           26  value   -5.4118233189693644E-004
 DIRECTION dim           27  value   -7.2259877615524009E-005
 DIRECTION dim           28  value    2.8980270545203460E-004
 DIRECTION dim           29  value   -5.5332124302722460E-004
 DIRECTION dim           30  value   -1.7686962597628973E-004
 DIRECTION dim           31  value    1.5597550242513078E-004
 DIRECTION dim           32  value   -5.5846071943692192E-004
 DIRECTION dim           33  value   -8.1175714680251212E-005
 DIRECTION dim           34  value    1.9310099807935915E-004
 DIRECTION dim           35  value   -7.2089400036375278E-004
 DIRECTION dim           36  value   -2.8534890347187559E-005
 DIRECTION dim           37  value    2.5796042908692637E-004
 DIRECTION dim           38  value   -3.1248732963741564E-004
 DIRECTION dim           39  value   -1.2128696258664858E-004
 DIRECTION dim           40  value    2.3672659954328506E-004
 DIRECTION dim           41  value   -5.2367437673257115E-004
 DIRECTION dim           42  value   -4.2227361393077913E-005
 DIRECTION dim           43  value    3.1955368362435659E-004
 DIRECTION dim           44  value   -6.9720507966368733E-004
 DIRECTION dim           45  value    1.9564860682607450E-005
 DIRECTION dim           46  value   -1.0505817724552587E-004
 DIRECTION dim           47  value    5.9901305161132504E-004
 DIRECTION dim           48  value   -1.9421451233878851E-003
  Cycle:     87 Energy:      -472.530103  Gnorm:      0.007037  CPU:    0.464
 ALPHA BEFORE:    2.3249445880407933     
 XC BEFORE:   0.40113151826627091     
  ** Opt : line minimisation
left   ...       0.00000000    -472.53010304
centre ...       0.58123615    -472.53015498
right  ...       1.16247229    -472.53016656

left   ...       0.00000000    -472.53010304
centre ...       0.58123615    -472.53015498
right  ...       1.16247229    -472.53016656
new    ...       1.03843783    -472.53016748

__s__    ...      -0.12403446

 ALPHA AFTER:    1.0384378305771429     
 XC AFTER:   0.40112048848409448     
 SANITY CHECK:    1.0384378305812112     
 DIRECTION dim            1  value   -1.0621514212610232E-005
 DIRECTION dim            2  value   -4.8087688780977522E-004
 DIRECTION dim            3  value   -2.5354334847965990E-004
 DIRECTION dim            4  value    1.2558471665464091E-004
 DIRECTION dim            5  value   -6.2477264332213471E-004
 DIRECTION dim            6  value   -1.3862663958170868E-004
 DIRECTION dim            7  value   -4.7069174396320369E-005
 DIRECTION dim            8  value   -6.2359885949404164E-004
 DIRECTION dim            9  value   -1.5138642341836758E-004
 DIRECTION dim           10  value    6.3255909867624518E-006
 DIRECTION dim           11  value   -2.0777416827845094E-004
 DIRECTION dim           12  value   -1.0186367002281395E-004
 DIRECTION dim           13  value   -1.2028455664574010E-004
 DIRECTION dim           14  value   -4.3541561736626631E-005
 DIRECTION dim           15  value    4.0584710513099246E-005
 DIRECTION dim           16  value   -4.4494154564511334E-005
 DIRECTION dim           17  value   -2.2579001970973788E-004
 DIRECTION dim           18  value    9.9659556488658949E-005
 DIRECTION dim           19  value    5.1996904323045926E-006
 DIRECTION dim           20  value   -4.2368071333649779E-004
 DIRECTION dim           21  value   -2.9286133234995669E-005
 DIRECTION dim           22  value   -7.9572709175921678E-006
 DIRECTION dim           23  value   -3.6233509976598381E-004
 DIRECTION dim           24  value   -5.6872469521653606E-005
 DIRECTION dim           25  value    5.4563435591602230E-006
 DIRECTION dim           26  value   -3.0477842887574369E-004
 DIRECTION dim           27  value   -7.7355698477503463E-005
 DIRECTION dim           28  value   -4.5526540324273819E-005
 DIRECTION dim           29  value   -3.7848167325443800E-004
 DIRECTION dim           30  value   -4.3927033955516826E-005
 DIRECTION dim           31  value    8.4536063826146101E-005
 DIRECTION dim           32  value   -1.9306497055258549E-004
 DIRECTION dim           33  value   -8.5343858787991010E-005
 DIRECTION dim           34  value   -3.4286210194205889E-006
 DIRECTION dim           35  value   -4.6811415305976636E-004
 DIRECTION dim           36  value   -1.0711587979287585E-004
 DIRECTION dim           37  value   -2.2876207442887841E-005
 DIRECTION dim           38  value   -1.8558744166029021E-004
 DIRECTION dim           39  value    1.7352221329443253E-005
 DIRECTION dim           40  value    4.2910679181760916E-008
 DIRECTION dim           41  value   -3.3127191419073663E-004
 DIRECTION dim           42  value   -5.2850116017183271E-005
 DIRECTION dim           43  value   -6.5914134532685400E-005
 DIRECTION dim           44  value    2.7041225544527657E-004
 DIRECTION dim           45  value   -1.6781332632093731E-005
 DIRECTION dim           46  value    4.2356379602491651E-004
 DIRECTION dim           47  value    7.0962154988220315E-004
 DIRECTION dim           48  value    4.6642916594547674E-004
  Cycle:     88 Energy:      -472.530167  Gnorm:      0.001269  CPU:    0.467
 ALPHA BEFORE:    4.6246863446522877     
 XC BEFORE:   0.40112048848409448     
  ** Opt : line minimisation
left   ...       0.00000000    -472.53016748
centre ...       1.00000000    -472.53017057
right  ...       2.00000000    -472.53016640

left   ...       0.00000000    -472.53016748
centre ...       1.00000000    -472.53017057
right  ...       2.00000000    -472.53016640
new    ...       1.00000000    -472.53017057

__s__    ...      -1.00000000

 ALPHA AFTER:    1.0000000000000000     
 XC AFTER:   0.40111162402261946     
 SANITY CHECK:   0.99999999999709765     
 DIRECTION dim            1  value   -8.8644614750479062E-006
 DIRECTION dim            2  value   -7.9613011413453582E-005
 DIRECTION dim            3  value   -6.8192142173103640E-005
 DIRECTION dim            4  value    5.0284933565279608E-005
 DIRECTION dim            5  value   -4.5595011307220811E-005
 DIRECTION dim            6  value   -3.5776690901846650E-005
 DIRECTION dim            7  value    3.9466311599936152E-005
 DIRECTION dim            8  value   -7.2353746498082387E-005
 DIRECTION dim            9  value   -6.1510535084696941E-005
 DIRECTION dim           10  value    1.7896763699396575E-005
 DIRECTION dim           11  value   -1.2568942479512554E-005
 DIRECTION dim           12  value   -3.6807857202289025E-005
 DIRECTION dim           13  value    1.3785579262679176E-005
 DIRECTION dim           14  value   -2.5048928032452973E-005
 DIRECTION dim           15  value   -2.9367876749779750E-005
 DIRECTION dim           16  value    4.7217204911657025E-005
 DIRECTION dim           17  value   -1.2315200541901864E-005
 DIRECTION dim           18  value   -3.2785010027968692E-006
 DIRECTION dim           19  value    4.5310759922524665E-005
 DIRECTION dim           20  value   -6.9732718169181462E-005
 DIRECTION dim           21  value   -2.0691124793362448E-005
 DIRECTION dim           22  value    3.6508951707832235E-005
 DIRECTION dim           23  value   -3.9759624372390185E-005
 DIRECTION dim           24  value   -3.5735694742947304E-005
 DIRECTION dim           25  value    2.4613858782462663E-005
 DIRECTION dim           26  value   -3.2759366160578545E-005
 DIRECTION dim           27  value   -2.8267320608176237E-005
 DIRECTION dim           28  value    2.9469020232363601E-005
 DIRECTION dim           29  value   -5.8526009156068930E-005
 DIRECTION dim           30  value   -2.9119148714474434E-005
 DIRECTION dim           31  value    3.1434710318287931E-005
 DIRECTION dim           32  value   -6.3589818455839171E-006
 DIRECTION dim           33  value   -2.7382828765529761E-005
 DIRECTION dim           34  value    3.1461524269357652E-005
 DIRECTION dim           35  value   -3.7529018649304309E-005
 DIRECTION dim           36  value   -4.0716382607927648E-005
 DIRECTION dim           37  value    3.5215469950782039E-005
 DIRECTION dim           38  value   -3.7605917100172337E-005
 DIRECTION dim           39  value   -2.5815047751647393E-005
 DIRECTION dim           40  value    2.5040249632002702E-005
 DIRECTION dim           41  value   -3.6804343867881715E-005
 DIRECTION dim           42  value   -3.2915309015173576E-005
 DIRECTION dim           43  value   -4.3194932704511952E-005
 DIRECTION dim           44  value    1.1232929313285152E-004
 DIRECTION dim           45  value   -1.4454800079823224E-005
 DIRECTION dim           46  value    9.2685829647247344E-005
 DIRECTION dim           47  value    8.7432816771922976E-005
 DIRECTION dim           48  value    2.5994188821004574E-004


  **** Optimisation achieved ****


  Final energy =    -472.53017057 eV
  Final Gnorm  =       0.00032430

  Components of energy : 

--------------------------------------------------------------------------------
  Interatomic potentials     =          69.66149138 eV    
  Monopole - monopole (real) =        -259.20448374 eV    
  Monopole - monopole (recip)=        -282.98717821 eV    
  Monopole - monopole (total)=        -542.19166195 eV    
--------------------------------------------------------------------------------
  Total lattice energy       =        -472.53017057 eV    
--------------------------------------------------------------------------------
  Total lattice energy       =          -45591.9382 kJ/(mole unit cells)
--------------------------------------------------------------------------------

  Final fractional coordinates of atoms :

--------------------------------------------------------------------------------
   No.  Atomic        x           y          z          Radius
        Label       (Frac)      (Frac)     (Frac)       (Angs) 
--------------------------------------------------------------------------------
     1  O     c     0.000000    0.500000    0.250000    0.000000
     2  O     c     0.401112    0.555761    0.229246    0.000000
     3  O     c     0.220972    0.592960    0.566921    0.000000
     4  O     c     0.339960    0.079375    0.509565    0.000000
     5  O     c     0.816670    0.498789    0.722355    0.000000
     6  O     c     0.118996    0.986410    0.192645    0.000000
     7  O     c     0.938850    0.023607    0.530317    0.000000
     8  O     c     0.523299    0.080582    0.037209    0.000000
     9  O     c     0.169984    0.289682    0.879782    0.000000
    10  Sr    c     0.669984    0.289685    0.379781    0.000000
    11  Sr    c     0.595429    0.909952    0.710486    0.000000
    12  Sr    c     0.744540    0.669418    0.049077    0.000000
    13  Ti    c     0.096589    0.324827    0.655337    0.000000
    14  Ti    c     0.243378    0.254540    0.104229    0.000000
    15  Ti    c     0.169983    0.789685    0.379783    0.000000
--------------------------------------------------------------------------------

  Final Cartesian lattice vectors (Angstroms) :

        5.911673    0.063512    0.166119
        0.063512    5.207176   -0.518001
        0.332239   -1.036003    7.549471


  Final cell parameters and derivatives :

--------------------------------------------------------------------------------
       a            5.914347 Angstrom     dE/de1(xx)     0.001967 eV/strain
       b            5.233263 Angstrom     dE/de2(yy)     0.002870 eV/strain
       c            7.627463 Angstrom     dE/de3(zz)     0.003349 eV/strain
       alpha      103.449602 Degrees      dE/de4(yz)     0.001915 eV/strain
       beta        85.992891 Degrees      dE/de5(xz)     0.002269 eV/strain
       gamma       88.851969 Degrees      dE/de6(xy)    -0.004222 eV/strain
--------------------------------------------------------------------------------

  Primitive cell volume =           228.884082 Angs**3

  Density of cell =      3.993905 g/cm**3

  Non-primitive cell volume =           228.884082 Angs**3


  Final internal derivatives :

--------------------------------------------------------------------------------
   No.  Atomic          a             b             c           Radius
        Label          (eV)          (eV)          (eV)        (eV/Angs)
--------------------------------------------------------------------------------
      1 O     c       0.000000      0.000000      0.000000      0.000000
      2 O     c       0.000172     -0.001441     -0.003603      0.000000
      3 O     c      -0.000698     -0.003180      0.004743      0.000000
      4 O     c      -0.001190     -0.002085     -0.002064      0.000000
      5 O     c      -0.001736      0.002380     -0.000405      0.000000
      6 O     c       0.000891      0.001004     -0.002714      0.000000
      7 O     c      -0.001409      0.001236      0.000481      0.000000
      8 O     c       0.002193     -0.001571     -0.000336      0.000000
      9 O     c       0.000728     -0.000187      0.000073      0.000000
     10 Sr    c       0.000422      0.000102     -0.000149      0.000000
     11 Sr    c       0.001259      0.000757     -0.001637      0.000000
     12 Sr    c      -0.000264     -0.000713      0.000939      0.000000
     13 Ti    c       0.001742      0.000626     -0.005168      0.000000
     14 Ti    c      -0.001616     -0.002567      0.007251      0.000000
     15 Ti    c       0.001379     -0.000193      0.002017      0.000000
--------------------------------------------------------------------------------
  Maximum abs         0.002193      0.003180      0.007251      0.000000
--------------------------------------------------------------------------------


  Time to end of optimisation =       0.4711 seconds

 Exiting ------OPTIONS------

  Peak dynamic memory used =       0.60 MB 


  Timing analysis for GULP :

--------------------------------------------------------------------------------
  Task / Subroutine                                          Time (Seconds)
--------------------------------------------------------------------------------
  Calculation of reciprocal space energy and derivatives          0.0516
  Calculation of real space energy and derivatives                0.4056
  Global summation overhead                                       0.0002
--------------------------------------------------------------------------------
  Total CPU time                                                  0.4712
--------------------------------------------------------------------------------


  Job Finished at 13:26.39 21st February   2020                               

