********************************************************************************
*                       GENERAL UTILITY LATTICE PROGRAM                        *
*                                 Julian Gale                                  *
*                       Curtin Institute for Computation                       *
*                           Department of Chemistry                            *
*                    Curtin University, Western Australia                      *
********************************************************************************
* Version = 5.1.1 * Last modified =  25th August 2019                          *
********************************************************************************
*  optimise     - perform optimisation run                                     *
*  conp         - constant pressure calculation                                *
*  nosymmetry   - turn off symmetry after initial structure generation         *
*  full         - generate full unit cell when symmetry is removed             *
*  conjugate    - use conjugate gradients minimiser                            *
********************************************************************************
* ASE calculation                                                              *
********************************************************************************


  Job Started  at 16:30.42  3rd February   2020                               

  Number of CPUs =     1


  Total number of configurations input =      1

********************************************************************************
*  Input for Configuration =   1                                               *
********************************************************************************

  Formula = O9Sr3Ti3                                                    

  Number of irreducible atoms/shells =      15


  Total number atoms/shells =      15

  Dimensionality = 3               :  Bulk   



  Cartesian lattice vectors (Angstroms) :

        4.000000    0.000000    0.000000
        0.000000    4.000000    0.000000
        0.000000    0.000000    8.000000

  Cell parameters (Angstroms/Degrees):

  a =       4.0000    alpha =  90.0000
  b =       4.0000    beta  =  90.0000
  c =       8.0000    gamma =  90.0000

  Initial cell volume =         128.000000 Angs**3

  Temperature of configuration =  0.000     K 

  Pressure of configuration =         0.000 GPa 

  Fractional coordinates of asymmetric unit :

--------------------------------------------------------------------------------
   No.  Atomic       x           y          z         Charge      Occupancy
        Label      (Frac)      (Frac)     (Frac)        (e)         (Frac)  
--------------------------------------------------------------------------------
      1 O     c    0.500000    0.500000    0.750000    -2.00000    1.000000    
      2 O     c    0.500000 *  0.000000 *  0.750000 *  -2.00000    1.000000    
      3 O     c    0.000000 *  0.500000 *  0.750000 *  -2.00000    1.000000    
      4 O     c    0.000000 *  0.500000 *  0.000000 *  -2.00000    1.000000    
      5 O     c    0.000000 *  0.000000 *  0.250000 *  -2.00000    1.000000    
      6 O     c    0.500000 *  0.000000 *  0.250000 *  -2.00000    1.000000    
      7 O     c    0.500000 *  0.500000 *  0.250000 *  -2.00000    1.000000    
      8 O     c    0.500000 *  0.500000 *  0.500000 *  -2.00000    1.000000    
      9 O     c    0.500000 *  0.000000 *  0.500000 *  -2.00000    1.000000    
     10 Sr    c    0.250000 *  0.750000 *  0.375000 *   2.00000    1.000000    
     11 Sr    c    0.250000 *  0.750000 *  0.875000 *   2.00000    1.000000    
     12 Sr    c    0.250000 *  0.250000 *  0.625000 *   2.00000    1.000000    
     13 Ti    c    0.250000 *  0.750000 *  0.625000 *   4.00000    1.000000    
     14 Ti    c    0.750000 *  0.250000 *  0.875000 *   4.00000    1.000000    
     15 Ti    c    0.750000 *  0.750000 *  0.375000 *   4.00000    1.000000    
--------------------------------------------------------------------------------



********************************************************************************
*  General input information                                                   *
********************************************************************************

  Species output for all configurations : 

--------------------------------------------------------------------------------
  Species    Type    Atomic    Atomic    Charge       Radii (Angs)     Library
                     Number     Mass       (e)     Cova   Ionic  VDW   Symbol
--------------------------------------------------------------------------------
    O        Core        8      16.00  -2.000000   0.730  0.000  1.360          
    Sr       Core       38      87.62   2.000000   1.120  0.000  1.670          
    Ti       Core       22      47.88   4.000000   1.470  0.000  2.190          
--------------------------------------------------------------------------------


  Lattice summation method               =    Ewald          (3-D)
                                         =    Parry          (2-D)
                                         =    Saunders et al (1-D)
  Accuracy factor for lattice sums       =   12.000


  Time limit = Infinity

  Maximum range for interatomic potentials =    100000.000000 Angstroms

  General interatomic potentials :

--------------------------------------------------------------------------------
Atom  Types   Potential      Parameter       Value         Units   Cutoffs(Ang)
  1     2                                                            Min /  Max 
--------------------------------------------------------------------------------
O    c Sr   c Buckingham    Buckingham A     1952.3900    eV        0.000 10.000
                            Buckingham rho  0.33685000    Ang       
                            Buckingham C     19.220000    eV*Ang^6  
--------------------------------------------------------------------------------
O    c Ti   c Buckingham    Buckingham A     4590.7279    eV        0.000 10.000
                            Buckingham rho  0.26100000    Ang       
                            Buckingham C     0.0000000    eV*Ang^6  
--------------------------------------------------------------------------------
O    c O    c Buckingham    Buckingham A     1388.7700    eV        0.000 10.000
                            Buckingham rho  0.36262000    Ang       
                            Buckingham C     175.00000    eV*Ang^6  
--------------------------------------------------------------------------------
 Calling ------OPTIONS------

********************************************************************************
*  Output for configuration   1                                                *
********************************************************************************


  Components of energy : 

--------------------------------------------------------------------------------
  Interatomic potentials     =         283.74069147 eV    
  Monopole - monopole (real) =        -200.67401279 eV    
  Monopole - monopole (recip)=        -313.23454466 eV    
  Monopole - monopole (total)=        -513.90855745 eV    
--------------------------------------------------------------------------------
  Total lattice energy       =        -230.16786598 eV    
--------------------------------------------------------------------------------
  Total lattice energy       =          -22207.6806 kJ/(mole unit cells)
--------------------------------------------------------------------------------


  Number of variables =       48

  Maximum number of calculations  =          1000
  Maximum Hessian update interval =            10
  Maximum step size               =   0.001000000
  Maximum parameter tolerance     =   0.000010000
  Maximum function  tolerance     =   0.000010000
  Maximum gradient  tolerance     =   0.001000000
  Maximum gradient  component     =   0.010000000

  Cell parameters to be optimised using strains

  Conjugate gradient optimiser to be used

  Lower half triangular hessian to be used

  Minimiser to switch to BFGS with exact hessian
  When gradient norm is less than     0.500000

  Switch max step size to       0.10000000 when gnorm is less than    10.000000

  Start of bulk optimisation :

  Cycle:      0 Energy:      -230.167866  Gnorm:     22.287918  CPU:    0.015
 Perform trimming
 Line minimisation2
 ALPHA BEFORE:    1.0000000000000000     
  ** Opt : line minimisation
left   ...       0.00000000    -230.16786598
centre ...       0.00100000    -230.47284258
right  ...       0.00200000    -230.79029411

left   ...       0.00000000    -230.16786598
centre ...       0.00100000    -230.47284258
right  ...       0.00200000    -230.79029411
new    ...       0.00300000    -231.10709624

__s__    ...       0.00100000

left   ...       0.00100000    -230.47284258
centre ...       0.00200000    -230.79029411
right  ...       0.00300000    -231.10709624
new    ...       0.00400000    -231.42324963

__s__    ...       0.00100000

left   ...       0.00200000    -230.79029411
centre ...       0.00300000    -231.10709624
right  ...       0.00400000    -231.42324963
new    ...       0.00500000    -231.73875495

__s__    ...       0.00100000

left   ...       0.00300000    -231.10709624
centre ...       0.00400000    -231.42324963
right  ...       0.00500000    -231.73875495
new    ...       0.00600000    -232.05361285

__s__    ...       0.00100000

 ALPHA AFTER:    6.0000000000000010E-003
  Cycle:      1 Energy:      -232.053613  Gnorm:     22.022165  CPU:    0.027
 Perform trimming
 Line minimisation2
 ALPHA BEFORE:    6.0000000000000010E-003
  ** Opt : line minimisation
left   ...       0.00000000    -232.05361285
centre ...       0.00100000    -232.52471168
right  ...       0.00200000    -232.99437400

left   ...       0.00000000    -232.05361285
centre ...       0.00100000    -232.52471168
right  ...       0.00200000    -232.99437400
new    ...       0.00300000    -233.46260203

__s__    ...       0.00100000

left   ...       0.00100000    -232.52471168
centre ...       0.00200000    -232.99437400
right  ...       0.00300000    -233.46260203
new    ...       0.00400000    -233.92939802

__s__    ...       0.00100000

left   ...       0.00200000    -232.99437400
centre ...       0.00300000    -233.46260203
right  ...       0.00400000    -233.92939802
new    ...       0.00500000    -234.39476421

__s__    ...       0.00100000

 ALPHA AFTER:    5.0000000000000010E-003
  Cycle:      2 Energy:      -234.394764  Gnorm:     21.695633  CPU:    0.033
 Perform trimming
 Line minimisation2
 ALPHA BEFORE:    5.0000000000000010E-003
  ** Opt : line minimisation
left   ...       0.00000000    -234.39476421
centre ...       0.00100000    -235.09019649
right  ...       0.00200000    -235.78246994

left   ...       0.00000000    -234.39476421
centre ...       0.00100000    -235.09019649
right  ...       0.00200000    -235.78246994
new    ...       0.00300000    -236.47159206

__s__    ...       0.00100000

left   ...       0.00100000    -235.09019649
centre ...       0.00200000    -235.78246994
right  ...       0.00300000    -236.47159206
new    ...       0.00400000    -237.15757041

__s__    ...       0.00100000

left   ...       0.00200000    -235.78246994
centre ...       0.00300000    -236.47159206
right  ...       0.00400000    -237.15757041
new    ...       0.00500000    -237.84039337

__s__    ...       0.00100000

left   ...       0.00300000    -236.47159206
centre ...       0.00400000    -237.15757041
right  ...       0.00500000    -237.84039337
new    ...       0.00600000    -238.52010703

__s__    ...       0.00100000

left   ...       0.00400000    -237.15757041
centre ...       0.00500000    -237.84039337
right  ...       0.00600000    -238.52010703
new    ...       0.00700000    -239.19664221

__s__    ...       0.00100000

left   ...       0.00500000    -237.84039337
centre ...       0.00600000    -238.52010703
right  ...       0.00700000    -239.19664221
new    ...       0.00800000    -239.86996828

__s__    ...       0.00100000

 ALPHA AFTER:    8.0000000000000019E-003
  Cycle:      3 Energy:      -239.869968  Gnorm:     20.937718  CPU:    0.041
 Line minimisation2
 ALPHA BEFORE:    8.0000000000000019E-003
  ** Opt : line minimisation
left   ...       0.00000000    -239.86996828
centre ...       0.00100000    -240.85287934
right  ...       0.00200000    -241.82924828

left   ...       0.00000000    -239.86996828
centre ...       0.00100000    -240.85287934
right  ...       0.00200000    -241.82924828
new    ...       0.00300000    -242.79917553

__s__    ...       0.00100000

left   ...       0.00100000    -240.85287934
centre ...       0.00200000    -241.82924828
right  ...       0.00300000    -242.79917553
new    ...       0.00400000    -243.76285746

__s__    ...       0.00100000

left   ...       0.00200000    -241.82924828
centre ...       0.00300000    -242.79917553
right  ...       0.00400000    -243.76285746
new    ...       0.00500000    -244.72016378

__s__    ...       0.00100000

left   ...       0.00300000    -242.79917553
centre ...       0.00400000    -243.76285746
right  ...       0.00500000    -244.72016378
new    ...       0.00600000    -245.67106069

__s__    ...       0.00100000

left   ...       0.00400000    -243.76285746
centre ...       0.00500000    -244.72016378
right  ...       0.00600000    -245.67106069
new    ...       0.00700000    -246.61580244

__s__    ...       0.00100000

left   ...       0.00500000    -244.72016378
centre ...       0.00600000    -245.67106069
right  ...       0.00700000    -246.61580244
new    ...       0.00800000    -247.55418241

__s__    ...       0.00100000

 ALPHA AFTER:    8.0000000000000019E-003
  Cycle:      4 Energy:      -247.554182  Gnorm:     19.896057  CPU:    0.048
 Line minimisation2
 ALPHA BEFORE:    8.0000000000000019E-003
  ** Opt : line minimisation
left   ...       0.00000000    -247.55418241
centre ...       0.00100000    -248.41766637
right  ...       0.00200000    -249.27613171

left   ...       0.00000000    -247.55418241
centre ...       0.00100000    -248.41766637
right  ...       0.00200000    -249.27613171
new    ...       0.00300000    -250.12957687

__s__    ...       0.00100000

left   ...       0.00100000    -248.41766637
centre ...       0.00200000    -249.27613171
right  ...       0.00300000    -250.12957687
new    ...       0.00400000    -250.97796201

__s__    ...       0.00100000

left   ...       0.00200000    -249.27613171
centre ...       0.00300000    -250.12957687
right  ...       0.00400000    -250.97796201
new    ...       0.00500000    -251.82134346

__s__    ...       0.00100000

left   ...       0.00300000    -250.12957687
centre ...       0.00400000    -250.97796201
right  ...       0.00500000    -251.82134346
new    ...       0.00600000    -252.65977755

__s__    ...       0.00100000

left   ...       0.00400000    -250.97796201
centre ...       0.00500000    -251.82134346
right  ...       0.00600000    -252.65977755
new    ...       0.00700000    -253.49318613

__s__    ...       0.00100000

left   ...       0.00500000    -251.82134346
centre ...       0.00600000    -252.65977755
right  ...       0.00700000    -253.49318613
new    ...       0.00800000    -254.32168333

__s__    ...       0.00100000

 ALPHA AFTER:    8.0000000000000019E-003
  Cycle:      5 Energy:      -254.321683  Gnorm:     19.009321  CPU:    0.055
 Line minimisation2
 ALPHA BEFORE:    8.0000000000000019E-003
  ** Opt : line minimisation
left   ...       0.00000000    -254.32168333
centre ...       0.00100000    -255.11413244
right  ...       0.00200000    -255.90225131

left   ...       0.00000000    -254.32168333
centre ...       0.00100000    -255.11413244
right  ...       0.00200000    -255.90225131
new    ...       0.00300000    -256.68605497

__s__    ...       0.00100000

left   ...       0.00100000    -255.11413244
centre ...       0.00200000    -255.90225131
right  ...       0.00300000    -256.68605497
new    ...       0.00400000    -257.46555842

__s__    ...       0.00100000

left   ...       0.00200000    -255.90225131
centre ...       0.00300000    -256.68605497
right  ...       0.00400000    -257.46555842
new    ...       0.00500000    -258.24079597

__s__    ...       0.00100000

left   ...       0.00300000    -256.68605497
centre ...       0.00400000    -257.46555842
right  ...       0.00500000    -258.24079597
new    ...       0.00600000    -259.01176350

__s__    ...       0.00100000

left   ...       0.00400000    -257.46555842
centre ...       0.00500000    -258.24079597
right  ...       0.00600000    -259.01176350
new    ...       0.00700000    -259.77845692

__s__    ...       0.00100000

left   ...       0.00500000    -258.24079597
centre ...       0.00600000    -259.01176350
right  ...       0.00700000    -259.77845692
new    ...       0.00800000    -260.54092983

__s__    ...       0.00100000

 ALPHA AFTER:    8.0000000000000019E-003
  Cycle:      6 Energy:      -260.540930  Gnorm:     18.220248  CPU:    0.062
 Line minimisation2
 ALPHA BEFORE:    8.0000000000000019E-003
  ** Opt : line minimisation
left   ...       0.00000000    -260.54092983
centre ...       0.00100000    -261.27011084
right  ...       0.00200000    -261.99559702

left   ...       0.00000000    -260.54092983
centre ...       0.00100000    -261.27011084
right  ...       0.00200000    -261.99559702
new    ...       0.00300000    -262.71738174

__s__    ...       0.00100000

left   ...       0.00100000    -261.27011084
centre ...       0.00200000    -261.99559702
right  ...       0.00300000    -262.71738174
new    ...       0.00400000    -263.43545840

__s__    ...       0.00100000

left   ...       0.00200000    -261.99559702
centre ...       0.00300000    -262.71738174
right  ...       0.00400000    -263.43545840
new    ...       0.00500000    -264.14985884

__s__    ...       0.00100000

left   ...       0.00300000    -262.71738174
centre ...       0.00400000    -263.43545840
right  ...       0.00500000    -264.14985884
new    ...       0.00600000    -264.86061494

__s__    ...       0.00100000

left   ...       0.00400000    -263.43545840
centre ...       0.00500000    -264.14985884
right  ...       0.00600000    -264.86061494
new    ...       0.00700000    -265.56772009

__s__    ...       0.00100000

left   ...       0.00500000    -264.14985884
centre ...       0.00600000    -264.86061494
right  ...       0.00700000    -265.56772009
new    ...       0.00800000    -266.27116776

__s__    ...       0.00100000

 ALPHA AFTER:    8.0000000000000019E-003
  Cycle:      7 Energy:      -266.271168  Gnorm:     17.516238  CPU:    0.069
 Line minimisation2
 ALPHA BEFORE:    8.0000000000000019E-003
  ** Opt : line minimisation
left   ...       0.00000000    -266.27116776
centre ...       0.00100000    -266.94613548
right  ...       0.00200000    -267.61788688

left   ...       0.00000000    -266.27116776
centre ...       0.00100000    -266.94613548
right  ...       0.00200000    -267.61788688
new    ...       0.00300000    -268.28641335

__s__    ...       0.00100000

left   ...       0.00100000    -266.94613548
centre ...       0.00200000    -267.61788688
right  ...       0.00300000    -268.28641335
new    ...       0.00400000    -268.95174477

__s__    ...       0.00100000

left   ...       0.00200000    -267.61788688
centre ...       0.00300000    -268.28641335
right  ...       0.00400000    -268.95174477
new    ...       0.00500000    -269.61389175

__s__    ...       0.00100000

left   ...       0.00300000    -268.28641335
centre ...       0.00400000    -268.95174477
right  ...       0.00500000    -269.61389175
new    ...       0.00600000    -270.27253450

__s__    ...       0.00100000

left   ...       0.00400000    -268.95174477
centre ...       0.00500000    -269.61389175
right  ...       0.00600000    -270.27253450
new    ...       0.00700000    -270.92836457

__s__    ...       0.00100000

left   ...       0.00500000    -269.61389175
centre ...       0.00600000    -270.27253450
right  ...       0.00700000    -270.92836457
new    ...       0.00800000    -271.58069266

__s__    ...       0.00100000

 ALPHA AFTER:    8.0000000000000019E-003
  Cycle:      8 Energy:      -271.580693  Gnorm:     16.883862  CPU:    0.077
 Line minimisation2
 ALPHA BEFORE:    8.0000000000000019E-003
  ** Opt : line minimisation
left   ...       0.00000000    -271.58069266
centre ...       0.00100000    -272.20815755
right  ...       0.00200000    -272.83285279

left   ...       0.00000000    -271.58069266
centre ...       0.00100000    -272.20815755
right  ...       0.00200000    -272.83285279
new    ...       0.00300000    -273.45472947

__s__    ...       0.00100000

left   ...       0.00100000    -272.20815755
centre ...       0.00200000    -272.83285279
right  ...       0.00300000    -273.45472947
new    ...       0.00400000    -274.07383520

__s__    ...       0.00100000

left   ...       0.00200000    -272.83285279
centre ...       0.00300000    -273.45472947
right  ...       0.00400000    -274.07383520
new    ...       0.00500000    -274.69033443

__s__    ...       0.00100000

left   ...       0.00300000    -273.45472947
centre ...       0.00400000    -274.07383520
right  ...       0.00500000    -274.69033443
new    ...       0.00600000    -275.30423598

__s__    ...       0.00100000

left   ...       0.00400000    -274.07383520
centre ...       0.00500000    -274.69033443
right  ...       0.00600000    -275.30423598
new    ...       0.00700000    -275.91519878

__s__    ...       0.00100000

left   ...       0.00500000    -274.69033443
centre ...       0.00600000    -275.30423598
right  ...       0.00700000    -275.91519878
new    ...       0.00800000    -276.52358176

__s__    ...       0.00100000

 ALPHA AFTER:    8.0000000000000019E-003
  Cycle:      9 Energy:      -276.523582  Gnorm:     16.312254  CPU:    0.083
 Line minimisation2
 ALPHA BEFORE:    8.0000000000000019E-003
  ** Opt : line minimisation
left   ...       0.00000000    -276.52358176
centre ...       0.00100000    -277.12973659
right  ...       0.00200000    -277.73307292

left   ...       0.00000000    -276.52358176
centre ...       0.00100000    -277.12973659
right  ...       0.00200000    -277.73307292
new    ...       0.00300000    -278.33377402

__s__    ...       0.00100000

left   ...       0.00100000    -277.12973659
centre ...       0.00200000    -277.73307292
right  ...       0.00300000    -278.33377402
new    ...       0.00400000    -278.93202356

__s__    ...       0.00100000

left   ...       0.00200000    -277.73307292
centre ...       0.00300000    -278.33377402
right  ...       0.00400000    -278.93202356
new    ...       0.00500000    -279.52747977

__s__    ...       0.00100000

left   ...       0.00300000    -278.33377402
centre ...       0.00400000    -278.93202356
right  ...       0.00500000    -279.52747977
new    ...       0.00600000    -280.12050132

__s__    ...       0.00100000

left   ...       0.00400000    -278.93202356
centre ...       0.00500000    -279.52747977
right  ...       0.00600000    -280.12050132
new    ...       0.00700000    -280.71090220

__s__    ...       0.00100000

left   ...       0.00500000    -279.52747977
centre ...       0.00600000    -280.12050132
right  ...       0.00700000    -280.71090220
new    ...       0.00800000    -281.29837950

__s__    ...       0.00100000

 ALPHA AFTER:    8.0000000000000019E-003
  Cycle:     10 Energy:      -281.298380  Gnorm:     15.774999  CPU:    0.090
 Line minimisation2
 ALPHA BEFORE:    8.0000000000000019E-003
  ** Opt : line minimisation
left   ...       0.00000000    -281.29837950
centre ...       0.00100000    -281.84613309
right  ...       0.00200000    -282.38996357

left   ...       0.00000000    -281.29837950
centre ...       0.00100000    -281.84613309
right  ...       0.00200000    -282.38996357
new    ...       0.00300000    -282.93162840

__s__    ...       0.00100000

left   ...       0.00100000    -281.84613309
centre ...       0.00200000    -282.38996357
right  ...       0.00300000    -282.93162840
new    ...       0.00400000    -283.47113499

__s__    ...       0.00100000

left   ...       0.00200000    -282.38996357
centre ...       0.00300000    -282.93162840
right  ...       0.00400000    -283.47113499
new    ...       0.00500000    -284.00848961

__s__    ...       0.00100000

left   ...       0.00300000    -282.93162840
centre ...       0.00400000    -283.47113499
right  ...       0.00500000    -284.00848961
new    ...       0.00600000    -284.54544808

__s__    ...       0.00100000

left   ...       0.00400000    -283.47113499
centre ...       0.00500000    -284.00848961
right  ...       0.00600000    -284.54544808
new    ...       0.00700000    -285.08026473

__s__    ...       0.00100000

left   ...       0.00500000    -284.00848961
centre ...       0.00600000    -284.54544808
right  ...       0.00700000    -285.08026473
new    ...       0.00800000    -285.61277121

__s__    ...       0.00100000

 ALPHA AFTER:    8.0000000000000019E-003
  Cycle:     11 Energy:      -285.612771  Gnorm:     15.302180  CPU:    0.097
 Line minimisation2
 ALPHA BEFORE:    8.0000000000000019E-003
  ** Opt : line minimisation
left   ...       0.00000000    -285.61277121
centre ...       0.00100000    -286.12926096
right  ...       0.00200000    -286.64414878

left   ...       0.00000000    -285.61277121
centre ...       0.00100000    -286.12926096
right  ...       0.00200000    -286.64414878
new    ...       0.00300000    -287.15705174

__s__    ...       0.00100000

left   ...       0.00100000    -286.12926096
centre ...       0.00200000    -286.64414878
right  ...       0.00300000    -287.15705174
new    ...       0.00400000    -287.66770256

__s__    ...       0.00100000

left   ...       0.00200000    -286.64414878
centre ...       0.00300000    -287.15705174
right  ...       0.00400000    -287.66770256
new    ...       0.00500000    -288.17676841

__s__    ...       0.00100000

left   ...       0.00300000    -287.15705174
centre ...       0.00400000    -287.66770256
right  ...       0.00500000    -288.17676841
new    ...       0.00600000    -288.68390465

__s__    ...       0.00100000

left   ...       0.00400000    -287.66770256
centre ...       0.00500000    -288.17676841
right  ...       0.00600000    -288.68390465
new    ...       0.00700000    -289.18911688

__s__    ...       0.00100000

left   ...       0.00500000    -288.17676841
centre ...       0.00600000    -288.68390465
right  ...       0.00700000    -289.18911688
new    ...       0.00800000    -289.69206098

__s__    ...       0.00100000

 ALPHA AFTER:    8.0000000000000019E-003
  Cycle:     12 Energy:      -289.692061  Gnorm:     14.865843  CPU:    0.104
 Line minimisation2
 ALPHA BEFORE:    8.0000000000000019E-003
  ** Opt : line minimisation
left   ...       0.00000000    -289.69206098
centre ...       0.00100000    -290.17989263
right  ...       0.00200000    -290.66597021

left   ...       0.00000000    -289.69206098
centre ...       0.00100000    -290.17989263
right  ...       0.00200000    -290.66597021
new    ...       0.00300000    -291.15027941

__s__    ...       0.00100000

left   ...       0.00100000    -290.17989263
centre ...       0.00200000    -290.66597021
right  ...       0.00300000    -291.15027941
new    ...       0.00400000    -291.63268858

__s__    ...       0.00100000

left   ...       0.00200000    -290.66597021
centre ...       0.00300000    -291.15027941
right  ...       0.00400000    -291.63268858
new    ...       0.00500000    -292.11353346

__s__    ...       0.00100000

 ALPHA AFTER:    5.0000000000000010E-003
  Cycle:     13 Energy:      -292.113533  Gnorm:     14.612079  CPU:    0.110
 Line minimisation2
 ALPHA BEFORE:    5.0000000000000010E-003
  ** Opt : line minimisation
left   ...       0.00000000    -292.11353346
centre ...       0.00100000    -292.58979293
right  ...       0.00200000    -293.06437029

left   ...       0.00000000    -292.11353346
centre ...       0.00100000    -292.58979293
right  ...       0.00200000    -293.06437029
new    ...       0.00300000    -293.53707605

__s__    ...       0.00100000

left   ...       0.00100000    -292.58979293
centre ...       0.00200000    -293.06437029
right  ...       0.00300000    -293.53707605
new    ...       0.00400000    -294.00830334

__s__    ...       0.00100000

left   ...       0.00200000    -293.06437029
centre ...       0.00300000    -293.53707605
right  ...       0.00400000    -294.00830334
new    ...       0.00500000    -294.47784320

__s__    ...       0.00100000

 ALPHA AFTER:    5.0000000000000010E-003
  Cycle:     14 Energy:      -294.477843  Gnorm:     14.367281  CPU:    0.114
 Line minimisation2
 ALPHA BEFORE:    5.0000000000000010E-003
  ** Opt : line minimisation
left   ...       0.00000000    -294.47784320
centre ...       0.00100000    -294.93799151
right  ...       0.00200000    -295.39656049

left   ...       0.00000000    -294.47784320
centre ...       0.00100000    -294.93799151
right  ...       0.00200000    -295.39656049
new    ...       0.00300000    -295.85355439

__s__    ...       0.00100000

left   ...       0.00100000    -294.93799151
centre ...       0.00200000    -295.39656049
right  ...       0.00300000    -295.85355439
new    ...       0.00400000    -296.30897744

__s__    ...       0.00100000

left   ...       0.00200000    -295.39656049
centre ...       0.00300000    -295.85355439
right  ...       0.00400000    -296.30897744
new    ...       0.00500000    -296.76283387

__s__    ...       0.00100000

 ALPHA AFTER:    5.0000000000000010E-003
  Cycle:     15 Energy:      -296.762834  Gnorm:     14.133476  CPU:    0.119
 Line minimisation2
 ALPHA BEFORE:    5.0000000000000010E-003
  ** Opt : line minimisation
left   ...       0.00000000    -296.76283387
centre ...       0.00100000    -297.20800742
right  ...       0.00200000    -297.65169395

left   ...       0.00000000    -296.76283387
centre ...       0.00100000    -297.20800742
right  ...       0.00200000    -297.65169395
new    ...       0.00300000    -298.09389736

__s__    ...       0.00100000

left   ...       0.00100000    -297.20800742
centre ...       0.00200000    -297.65169395
right  ...       0.00300000    -298.09389736
new    ...       0.00400000    -298.53462155

__s__    ...       0.00100000

left   ...       0.00200000    -297.65169395
centre ...       0.00300000    -298.09389736
right  ...       0.00400000    -298.53462155
new    ...       0.00500000    -298.97387041

__s__    ...       0.00100000

 ALPHA AFTER:    5.0000000000000010E-003
  Cycle:     16 Energy:      -298.973870  Gnorm:     13.909730  CPU:    0.124
 Line minimisation2
 ALPHA BEFORE:    5.0000000000000010E-003
  ** Opt : line minimisation
left   ...       0.00000000    -298.97387041
centre ...       0.00100000    -299.40492890
right  ...       0.00200000    -299.83458466

left   ...       0.00000000    -298.97387041
centre ...       0.00100000    -299.40492890
right  ...       0.00200000    -299.83458466
new    ...       0.00300000    -300.26282209

__s__    ...       0.00100000

left   ...       0.00100000    -299.40492890
centre ...       0.00200000    -299.83458466
right  ...       0.00300000    -300.26282209
new    ...       0.00400000    -300.68968321

__s__    ...       0.00100000

left   ...       0.00200000    -299.83458466
centre ...       0.00300000    -300.26282209
right  ...       0.00400000    -300.68968321
new    ...       0.00500000    -301.11515236

__s__    ...       0.00100000

 ALPHA AFTER:    5.0000000000000010E-003
  Cycle:     17 Energy:      -301.115152  Gnorm:     13.695290  CPU:    0.129
 Line minimisation2
 ALPHA BEFORE:    5.0000000000000010E-003
  ** Opt : line minimisation
left   ...       0.00000000    -301.11515236
centre ...       0.00100000    -301.53288689
right  ...       0.00200000    -301.94927662

left   ...       0.00000000    -301.11515236
centre ...       0.00100000    -301.53288689
right  ...       0.00200000    -301.94927662
new    ...       0.00300000    -302.36436334

__s__    ...       0.00100000

left   ...       0.00100000    -301.53288689
centre ...       0.00200000    -301.94927662
right  ...       0.00300000    -302.36436334
new    ...       0.00400000    -302.77809270

__s__    ...       0.00100000

left   ...       0.00200000    -301.94927662
centre ...       0.00300000    -302.36436334
right  ...       0.00400000    -302.77809270
new    ...       0.00500000    -303.19052568

__s__    ...       0.00100000

 ALPHA AFTER:    5.0000000000000010E-003
  Cycle:     18 Energy:      -303.190526  Gnorm:     13.489480  CPU:    0.134
 Line minimisation2
 ALPHA BEFORE:    5.0000000000000010E-003
  ** Opt : line minimisation
left   ...       0.00000000    -303.19052568
centre ...       0.00100000    -303.59566108
right  ...       0.00200000    -303.99952248

left   ...       0.00000000    -303.19052568
centre ...       0.00100000    -303.59566108
right  ...       0.00200000    -303.99952248
new    ...       0.00300000    -304.40213219

__s__    ...       0.00100000

left   ...       0.00100000    -303.59566108
centre ...       0.00200000    -303.99952248
right  ...       0.00300000    -304.40213219
new    ...       0.00400000    -304.80349330

__s__    ...       0.00100000

left   ...       0.00200000    -303.99952248
centre ...       0.00300000    -304.40213219
right  ...       0.00400000    -304.80349330
new    ...       0.00500000    -305.20362805

__s__    ...       0.00100000

 ALPHA AFTER:    5.0000000000000010E-003
  Cycle:     19 Energy:      -305.203628  Gnorm:     13.291682  CPU:    0.139
 Line minimisation2
 ALPHA BEFORE:    5.0000000000000010E-003
  ** Opt : line minimisation
left   ...       0.00000000    -305.20362805
centre ...       0.00100000    -305.60256532
right  ...       0.00200000    -306.00025854

left   ...       0.00000000    -305.20362805
centre ...       0.00100000    -305.60256532
right  ...       0.00200000    -306.00025854
new    ...       0.00300000    -306.39669154

__s__    ...       0.00100000

left   ...       0.00100000    -305.60256532
centre ...       0.00200000    -306.00025854
right  ...       0.00300000    -306.39669154
new    ...       0.00400000    -306.79196337

__s__    ...       0.00100000

left   ...       0.00200000    -306.00025854
centre ...       0.00300000    -306.39669154
right  ...       0.00400000    -306.79196337
new    ...       0.00500000    -307.18600006

__s__    ...       0.00100000

 ALPHA AFTER:    5.0000000000000010E-003
  Cycle:     20 Energy:      -307.186000  Gnorm:     13.098578  CPU:    0.144
 Line minimisation2
 ALPHA BEFORE:    5.0000000000000010E-003
  ** Opt : line minimisation
left   ...       0.00000000    -307.18600006
centre ...       0.00100000    -307.56751745
right  ...       0.00200000    -307.94794561

left   ...       0.00000000    -307.18600006
centre ...       0.00100000    -307.56751745
right  ...       0.00200000    -307.94794561
new    ...       0.00300000    -308.32721024

__s__    ...       0.00100000

left   ...       0.00100000    -307.56751745
centre ...       0.00200000    -307.94794561
right  ...       0.00300000    -308.32721024
new    ...       0.00400000    -308.70539090

__s__    ...       0.00100000

left   ...       0.00200000    -307.94794561
centre ...       0.00300000    -308.32721024
right  ...       0.00400000    -308.70539090
new    ...       0.00500000    -309.08245173

__s__    ...       0.00100000

 ALPHA AFTER:    5.0000000000000010E-003
  Cycle:     21 Energy:      -309.082452  Gnorm:     12.915391  CPU:    0.149
 Line minimisation2
 ALPHA BEFORE:    5.0000000000000010E-003
  ** Opt : line minimisation
left   ...       0.00000000    -309.08245173
centre ...       0.00100000    -309.45343126
right  ...       0.00200000    -309.82333752

left   ...       0.00000000    -309.08245173
centre ...       0.00100000    -309.45343126
right  ...       0.00200000    -309.82333752
new    ...       0.00300000    -310.19217297

__s__    ...       0.00100000

left   ...       0.00100000    -309.45343126
centre ...       0.00200000    -309.82333752
right  ...       0.00300000    -310.19217297
new    ...       0.00400000    -310.55992087

__s__    ...       0.00100000

left   ...       0.00200000    -309.82333752
centre ...       0.00300000    -310.19217297
right  ...       0.00400000    -310.55992087
new    ...       0.00500000    -310.92658369

__s__    ...       0.00100000

 ALPHA AFTER:    5.0000000000000010E-003
  Cycle:     22 Energy:      -310.926584  Gnorm:     12.738628  CPU:    0.154
 Line minimisation2
 ALPHA BEFORE:    5.0000000000000010E-003
  ** Opt : line minimisation
left   ...       0.00000000    -310.92658369
centre ...       0.00100000    -311.28731543
right  ...       0.00200000    -311.64704460

left   ...       0.00000000    -310.92658369
centre ...       0.00100000    -311.28731543
right  ...       0.00200000    -311.64704460
new    ...       0.00300000    -312.00567742

__s__    ...       0.00100000

left   ...       0.00100000    -311.28731543
centre ...       0.00200000    -311.64704460
right  ...       0.00300000    -312.00567742
new    ...       0.00400000    -312.36335076

__s__    ...       0.00100000

left   ...       0.00200000    -311.64704460
centre ...       0.00300000    -312.00567742
right  ...       0.00400000    -312.36335076
new    ...       0.00500000    -312.71993236

__s__    ...       0.00100000

 ALPHA AFTER:    5.0000000000000010E-003
  Cycle:     23 Energy:      -312.719932  Gnorm:     12.567978  CPU:    0.158
 Line minimisation2
 ALPHA BEFORE:    5.0000000000000010E-003
  ** Opt : line minimisation
left   ...       0.00000000    -312.71993236
centre ...       0.00100000    -313.07090701
right  ...       0.00200000    -313.42088847

left   ...       0.00000000    -312.71993236
centre ...       0.00100000    -313.07090701
right  ...       0.00200000    -313.42088847
new    ...       0.00300000    -313.76993649

__s__    ...       0.00100000

left   ...       0.00100000    -313.07090701
centre ...       0.00200000    -313.42088847
right  ...       0.00300000    -313.76993649
new    ...       0.00400000    -314.11803396

__s__    ...       0.00100000

left   ...       0.00200000    -313.42088847
centre ...       0.00300000    -313.76993649
right  ...       0.00400000    -314.11803396
new    ...       0.00500000    -314.46516377

__s__    ...       0.00100000

 ALPHA AFTER:    5.0000000000000010E-003
  Cycle:     24 Energy:      -314.465164  Gnorm:     12.403051  CPU:    0.163
 Line minimisation2
 ALPHA BEFORE:    5.0000000000000010E-003
  ** Opt : line minimisation
left   ...       0.00000000    -314.46516377
centre ...       0.00100000    -314.80685066
right  ...       0.00200000    -315.14762717

left   ...       0.00000000    -314.46516377
centre ...       0.00100000    -314.80685066
right  ...       0.00200000    -315.14762717
new    ...       0.00300000    -315.48745692

__s__    ...       0.00100000

left   ...       0.00100000    -314.80685066
centre ...       0.00200000    -315.14762717
right  ...       0.00300000    -315.48745692
new    ...       0.00400000    -315.82639949

__s__    ...       0.00100000

left   ...       0.00200000    -315.14762717
centre ...       0.00300000    -315.48745692
right  ...       0.00400000    -315.82639949
new    ...       0.00500000    -316.16441842

__s__    ...       0.00100000

 ALPHA AFTER:    5.0000000000000010E-003
  Cycle:     25 Energy:      -316.164418  Gnorm:     12.243516  CPU:    0.168
 Line minimisation2
 ALPHA BEFORE:    5.0000000000000010E-003
  ** Opt : line minimisation
left   ...       0.00000000    -316.16441842
centre ...       0.00100000    -316.49727603
right  ...       0.00200000    -316.82924547

left   ...       0.00000000    -316.16441842
centre ...       0.00100000    -316.49727603
right  ...       0.00200000    -316.82924547
new    ...       0.00300000    -317.16029021

__s__    ...       0.00100000

left   ...       0.00100000    -316.49727603
centre ...       0.00200000    -316.82924547
right  ...       0.00300000    -317.16029021
new    ...       0.00400000    -317.49046974

__s__    ...       0.00100000

left   ...       0.00200000    -316.82924547
centre ...       0.00300000    -317.16029021
right  ...       0.00400000    -317.49046974
new    ...       0.00500000    -317.81976673

__s__    ...       0.00100000

 ALPHA AFTER:    5.0000000000000010E-003
  Cycle:     26 Energy:      -317.819767  Gnorm:     12.089062  CPU:    0.173
 Line minimisation2
 ALPHA BEFORE:    5.0000000000000010E-003
  ** Opt : line minimisation
left   ...       0.00000000    -317.81976673
centre ...       0.00100000    -318.14414845
right  ...       0.00200000    -318.46766153

left   ...       0.00000000    -317.81976673
centre ...       0.00100000    -318.14414845
right  ...       0.00200000    -318.46766153
new    ...       0.00300000    -318.79034612

__s__    ...       0.00100000

left   ...       0.00100000    -318.14414845
centre ...       0.00200000    -318.46766153
right  ...       0.00300000    -318.79034612
new    ...       0.00400000    -319.11214632

__s__    ...       0.00100000

left   ...       0.00200000    -318.46766153
centre ...       0.00300000    -318.79034612
right  ...       0.00400000    -319.11214632
new    ...       0.00500000    -319.43314075

__s__    ...       0.00100000

 ALPHA AFTER:    5.0000000000000010E-003
  Cycle:     27 Energy:      -319.433141  Gnorm:     11.939405  CPU:    0.178
 Line minimisation2
 ALPHA BEFORE:    5.0000000000000010E-003
  ** Opt : line minimisation
left   ...       0.00000000    -319.43314075
centre ...       0.00100000    -319.74941286
right  ...       0.00200000    -320.06487175

left   ...       0.00000000    -319.43314075
centre ...       0.00100000    -319.74941286
right  ...       0.00200000    -320.06487175
new    ...       0.00300000    -320.37949984

__s__    ...       0.00100000

left   ...       0.00100000    -319.74941286
centre ...       0.00200000    -320.06487175
right  ...       0.00300000    -320.37949984
new    ...       0.00400000    -320.69331800

__s__    ...       0.00100000

left   ...       0.00200000    -320.06487175
centre ...       0.00300000    -320.37949984
right  ...       0.00400000    -320.69331800
new    ...       0.00500000    -321.00634705

__s__    ...       0.00100000

 ALPHA AFTER:    5.0000000000000010E-003
  Cycle:     28 Energy:      -321.006347  Gnorm:     11.794287  CPU:    0.182
 Line minimisation2
 ALPHA BEFORE:    5.0000000000000010E-003
  ** Opt : line minimisation
left   ...       0.00000000    -321.00634705
centre ...       0.00100000    -321.31485254
right  ...       0.00200000    -321.62257877

left   ...       0.00000000    -321.00634705
centre ...       0.00100000    -321.31485254
right  ...       0.00200000    -321.62257877
new    ...       0.00300000    -321.92950808

__s__    ...       0.00100000

left   ...       0.00100000    -321.31485254
centre ...       0.00200000    -321.62257877
right  ...       0.00300000    -321.92950808
new    ...       0.00400000    -322.23566119

__s__    ...       0.00100000

left   ...       0.00200000    -321.62257877
centre ...       0.00300000    -321.92950808
right  ...       0.00400000    -322.23566119
new    ...       0.00500000    -322.54105886

__s__    ...       0.00100000

 ALPHA AFTER:    5.0000000000000010E-003
  Cycle:     29 Energy:      -322.541059  Gnorm:     11.653468  CPU:    0.187
 Line minimisation2
 ALPHA BEFORE:    5.0000000000000010E-003
  ** Opt : line minimisation
left   ...       0.00000000    -322.54105886
centre ...       0.00100000    -322.84570080
right  ...       0.00200000    -323.14957739

left   ...       0.00000000    -322.54105886
centre ...       0.00100000    -322.84570080
right  ...       0.00200000    -323.14957739
new    ...       0.00300000    -323.45265172

__s__    ...       0.00100000

left   ...       0.00100000    -322.84570080
centre ...       0.00200000    -323.14957739
right  ...       0.00300000    -323.45265172
new    ...       0.00400000    -323.75500214

__s__    ...       0.00100000

left   ...       0.00200000    -323.14957739
centre ...       0.00300000    -323.45265172
right  ...       0.00400000    -323.75500214
new    ...       0.00500000    -324.05659166

__s__    ...       0.00100000

 ALPHA AFTER:    5.0000000000000010E-003
  Cycle:     30 Energy:      -324.056592  Gnorm:     11.515103  CPU:    0.192
 Line minimisation2
 ALPHA BEFORE:    5.0000000000000010E-003
  ** Opt : line minimisation
left   ...       0.00000000    -324.05659166
centre ...       0.00100000    -324.35034255
right  ...       0.00200000    -324.64337679

left   ...       0.00000000    -324.05659166
centre ...       0.00100000    -324.35034255
right  ...       0.00200000    -324.64337679
new    ...       0.00300000    -324.93552075

__s__    ...       0.00100000

left   ...       0.00100000    -324.35034255
centre ...       0.00200000    -324.64337679
right  ...       0.00300000    -324.93552075
new    ...       0.00400000    -325.22712607

__s__    ...       0.00100000

left   ...       0.00200000    -324.64337679
centre ...       0.00300000    -324.93552075
right  ...       0.00400000    -325.22712607
new    ...       0.00500000    -325.51801879

__s__    ...       0.00100000

 ALPHA AFTER:    5.0000000000000010E-003
  Cycle:     31 Energy:      -325.518019  Gnorm:     11.382333  CPU:    0.196
 Line minimisation2
 ALPHA BEFORE:    5.0000000000000010E-003
  ** Opt : line minimisation
left   ...       0.00000000    -325.51801879
centre ...       0.00100000    -325.80500217
right  ...       0.00200000    -326.09110273

left   ...       0.00000000    -325.51801879
centre ...       0.00100000    -325.80500217
right  ...       0.00200000    -326.09110273
new    ...       0.00300000    -326.37670999

__s__    ...       0.00100000

left   ...       0.00100000    -325.80500217
centre ...       0.00200000    -326.09110273
right  ...       0.00300000    -326.37670999
new    ...       0.00400000    -326.66163093

__s__    ...       0.00100000

left   ...       0.00200000    -326.09110273
centre ...       0.00300000    -326.37670999
right  ...       0.00400000    -326.66163093
new    ...       0.00500000    -326.94584758

__s__    ...       0.00100000

 ALPHA AFTER:    5.0000000000000010E-003
  Cycle:     32 Energy:      -326.945848  Gnorm:     11.253208  CPU:    0.201
 Line minimisation2
 ALPHA BEFORE:    5.0000000000000010E-003
  ** Opt : line minimisation
left   ...       0.00000000    -326.94584758
centre ...       0.00100000    -327.22622311
right  ...       0.00200000    -327.50593640

left   ...       0.00000000    -326.94584758
centre ...       0.00100000    -327.22622311
right  ...       0.00200000    -327.50593640
new    ...       0.00300000    -327.78500787

__s__    ...       0.00100000

left   ...       0.00100000    -327.22622311
centre ...       0.00200000    -327.50593640
right  ...       0.00300000    -327.78500787
new    ...       0.00400000    -328.06341947

__s__    ...       0.00100000

left   ...       0.00200000    -327.50593640
centre ...       0.00300000    -327.78500787
right  ...       0.00400000    -328.06341947
new    ...       0.00500000    -328.34115318

__s__    ...       0.00100000

 ALPHA AFTER:    5.0000000000000010E-003
  Cycle:     33 Energy:      -328.341153  Gnorm:     11.127584  CPU:    0.206
 Line minimisation2
 ALPHA BEFORE:    5.0000000000000010E-003
  ** Opt : line minimisation
left   ...       0.00000000    -328.34115318
centre ...       0.00100000    -328.61521294
right  ...       0.00200000    -328.88861636

left   ...       0.00000000    -328.34115318
centre ...       0.00100000    -328.61521294
right  ...       0.00200000    -328.88861636
new    ...       0.00300000    -329.16140300

__s__    ...       0.00100000

left   ...       0.00100000    -328.61521294
centre ...       0.00200000    -328.88861636
right  ...       0.00300000    -329.16140300
new    ...       0.00400000    -329.43353553

__s__    ...       0.00100000

left   ...       0.00200000    -328.88861636
centre ...       0.00300000    -329.16140300
right  ...       0.00400000    -329.43353553
new    ...       0.00500000    -329.70505352

__s__    ...       0.00100000

 ALPHA AFTER:    5.0000000000000010E-003
  Cycle:     34 Energy:      -329.705054  Gnorm:     11.005305  CPU:    0.211
 Line minimisation2
 ALPHA BEFORE:    5.0000000000000010E-003
  ** Opt : line minimisation
left   ...       0.00000000    -329.70505352
centre ...       0.00100000    -329.97301695
right  ...       0.00200000    -330.24036698

left   ...       0.00000000    -329.70505352
centre ...       0.00100000    -329.97301695
right  ...       0.00200000    -330.24036698
new    ...       0.00300000    -330.50710467

__s__    ...       0.00100000

left   ...       0.00100000    -329.97301695
centre ...       0.00200000    -330.24036698
right  ...       0.00300000    -330.50710467
new    ...       0.00400000    -330.77305617

__s__    ...       0.00100000

left   ...       0.00200000    -330.24036698
centre ...       0.00300000    -330.50710467
right  ...       0.00400000    -330.77305617
new    ...       0.00500000    -331.03855344

__s__    ...       0.00100000

 ALPHA AFTER:    5.0000000000000010E-003
  Cycle:     35 Energy:      -331.038553  Gnorm:     10.886233  CPU:    0.215
 Line minimisation2
 ALPHA BEFORE:    5.0000000000000010E-003
  ** Opt : line minimisation
left   ...       0.00000000    -331.03855344
centre ...       0.00100000    -331.30047201
right  ...       0.00200000    -331.56197477

left   ...       0.00000000    -331.03855344
centre ...       0.00100000    -331.30047201
right  ...       0.00200000    -331.56197477
new    ...       0.00300000    -331.82288760

__s__    ...       0.00100000

left   ...       0.00100000    -331.30047201
centre ...       0.00200000    -331.56197477
right  ...       0.00300000    -331.82288760
new    ...       0.00400000    -332.08301727

__s__    ...       0.00100000

left   ...       0.00200000    -331.56197477
centre ...       0.00300000    -331.82288760
right  ...       0.00400000    -332.08301727
new    ...       0.00500000    -332.34275347

__s__    ...       0.00100000

 ALPHA AFTER:    5.0000000000000010E-003
  Cycle:     36 Energy:      -332.342753  Gnorm:     10.770222  CPU:    0.220
 Line minimisation2
 ALPHA BEFORE:    5.0000000000000010E-003
  ** Opt : line minimisation
left   ...       0.00000000    -332.34275347
centre ...       0.00100000    -332.59917154
right  ...       0.00200000    -332.85503917

left   ...       0.00000000    -332.34275347
centre ...       0.00100000    -332.59917154
right  ...       0.00200000    -332.85503917
new    ...       0.00300000    -333.11033809

__s__    ...       0.00100000

left   ...       0.00100000    -332.59917154
centre ...       0.00200000    -332.85503917
right  ...       0.00300000    -333.11033809
new    ...       0.00400000    -333.36487505

__s__    ...       0.00100000

left   ...       0.00200000    -332.85503917
centre ...       0.00300000    -333.11033809
right  ...       0.00400000    -333.36487505
new    ...       0.00500000    -333.61868990

__s__    ...       0.00100000

 ALPHA AFTER:    5.0000000000000010E-003
  Cycle:     37 Energy:      -333.618690  Gnorm:     10.657144  CPU:    0.224
 Line minimisation2
 ALPHA BEFORE:    5.0000000000000010E-003
  ** Opt : line minimisation
left   ...       0.00000000    -333.61868990
centre ...       0.00100000    -333.86967389
right  ...       0.00200000    -334.11993351

left   ...       0.00000000    -333.61868990
centre ...       0.00100000    -333.86967389
right  ...       0.00200000    -334.11993351
new    ...       0.00300000    -334.36946978

__s__    ...       0.00100000

left   ...       0.00100000    -333.86967389
centre ...       0.00200000    -334.11993351
right  ...       0.00300000    -334.36946978
new    ...       0.00400000    -334.61878945

__s__    ...       0.00100000

left   ...       0.00200000    -334.11993351
centre ...       0.00300000    -334.36946978
right  ...       0.00400000    -334.61878945
new    ...       0.00500000    -334.86740674

__s__    ...       0.00100000

 ALPHA AFTER:    5.0000000000000010E-003
  Cycle:     38 Energy:      -334.867407  Gnorm:     10.546872  CPU:    0.229
 Line minimisation2
 ALPHA BEFORE:    5.0000000000000010E-003
  ** Opt : line minimisation
left   ...       0.00000000    -334.86740674
centre ...       0.00100000    -335.11312972
right  ...       0.00200000    -335.35810918

left   ...       0.00000000    -334.86740674
centre ...       0.00100000    -335.11312972
right  ...       0.00200000    -335.35810918
new    ...       0.00300000    -335.60259765

__s__    ...       0.00100000

left   ...       0.00100000    -335.11312972
centre ...       0.00200000    -335.35810918
right  ...       0.00300000    -335.60259765
new    ...       0.00400000    -335.84671344

__s__    ...       0.00100000

left   ...       0.00200000    -335.35810918
centre ...       0.00300000    -335.60259765
right  ...       0.00400000    -335.84671344
new    ...       0.00500000    -336.09014575

__s__    ...       0.00100000

 ALPHA AFTER:    5.0000000000000010E-003
  Cycle:     39 Energy:      -336.090146  Gnorm:     10.439274  CPU:    0.234
 Line minimisation2
 ALPHA BEFORE:    5.0000000000000010E-003
  ** Opt : line minimisation
left   ...       0.00000000    -336.09014575
centre ...       0.00100000    -336.33323683
right  ...       0.00200000    -336.57578606

left   ...       0.00000000    -336.09014575
centre ...       0.00100000    -336.33323683
right  ...       0.00200000    -336.57578606
new    ...       0.00300000    -336.81765784

__s__    ...       0.00100000

left   ...       0.00100000    -336.33323683
centre ...       0.00200000    -336.57578606
right  ...       0.00300000    -336.81765784
new    ...       0.00400000    -337.05918367

__s__    ...       0.00100000

left   ...       0.00200000    -336.57578606
centre ...       0.00300000    -336.81765784
right  ...       0.00400000    -337.05918367
new    ...       0.00500000    -337.30018929

__s__    ...       0.00100000

 ALPHA AFTER:    5.0000000000000010E-003
  Cycle:     40 Energy:      -337.300189  Gnorm:     10.333156  CPU:    0.239
 Line minimisation2
 ALPHA BEFORE:    5.0000000000000010E-003
  ** Opt : line minimisation
left   ...       0.00000000    -337.30018929
centre ...       0.00100000    -337.53580754
right  ...       0.00200000    -337.77095056

left   ...       0.00000000    -337.30018929
centre ...       0.00100000    -337.53580754
right  ...       0.00200000    -337.77095056
new    ...       0.00300000    -338.00542502

__s__    ...       0.00100000

left   ...       0.00100000    -337.53580754
centre ...       0.00200000    -337.77095056
right  ...       0.00300000    -338.00542502
new    ...       0.00400000    -338.23958159

__s__    ...       0.00100000

left   ...       0.00200000    -337.77095056
centre ...       0.00300000    -338.00542502
right  ...       0.00400000    -338.23958159
new    ...       0.00500000    -338.47324595

__s__    ...       0.00100000

 ALPHA AFTER:    5.0000000000000010E-003
  Cycle:     41 Energy:      -338.473246  Gnorm:     10.230621  CPU:    0.244
 Line minimisation2
 ALPHA BEFORE:    5.0000000000000010E-003
  ** Opt : line minimisation
left   ...       0.00000000    -338.47324595
centre ...       0.00100000    -338.70417396
right  ...       0.00200000    -338.93464302

left   ...       0.00000000    -338.47324595
centre ...       0.00100000    -338.70417396
right  ...       0.00200000    -338.93464302
new    ...       0.00300000    -339.16463458

__s__    ...       0.00100000

left   ...       0.00100000    -338.70417396
centre ...       0.00200000    -338.93464302
right  ...       0.00300000    -339.16463458
new    ...       0.00400000    -339.39395523

__s__    ...       0.00100000

left   ...       0.00200000    -338.93464302
centre ...       0.00300000    -339.16463458
right  ...       0.00400000    -339.39395523
new    ...       0.00500000    -339.62281924

__s__    ...       0.00100000

 ALPHA AFTER:    5.0000000000000010E-003
  Cycle:     42 Energy:      -339.622819  Gnorm:     10.130447  CPU:    0.249
 Line minimisation2
 ALPHA BEFORE:    5.0000000000000010E-003
  ** Opt : line minimisation
left   ...       0.00000000    -339.62281924
centre ...       0.00100000    -339.84918221
right  ...       0.00200000    -340.07506346

left   ...       0.00000000    -339.62281924
centre ...       0.00100000    -339.84918221
right  ...       0.00200000    -340.07506346
new    ...       0.00300000    -340.30032714

__s__    ...       0.00100000

left   ...       0.00100000    -339.84918221
centre ...       0.00200000    -340.07506346
right  ...       0.00300000    -340.30032714
new    ...       0.00400000    -340.52512995

__s__    ...       0.00100000

left   ...       0.00200000    -340.07506346
centre ...       0.00300000    -340.30032714
right  ...       0.00400000    -340.52512995
new    ...       0.00500000    -340.74964736

__s__    ...       0.00100000

 ALPHA AFTER:    5.0000000000000010E-003
  Cycle:     43 Energy:      -340.749647  Gnorm:     10.032553  CPU:    0.253
 Line minimisation2
 ALPHA BEFORE:    5.0000000000000010E-003
  ** Opt : line minimisation
left   ...       0.00000000    -340.74964736
centre ...       0.00100000    -340.97157623
right  ...       0.00200000    -341.19305753

left   ...       0.00000000    -340.74964736
centre ...       0.00100000    -340.97157623
right  ...       0.00200000    -341.19305753
new    ...       0.00300000    -341.41391699

__s__    ...       0.00100000

left   ...       0.00100000    -340.97157623
centre ...       0.00200000    -341.19305753
right  ...       0.00300000    -341.41391699
new    ...       0.00400000    -341.63433042

__s__    ...       0.00100000

left   ...       0.00200000    -341.19305753
centre ...       0.00300000    -341.41391699
right  ...       0.00400000    -341.63433042
new    ...       0.00500000    -341.85429832

__s__    ...       0.00100000

 ALPHA AFTER:    5.0000000000000010E-003
  Cycle:     44 Energy:      -341.854298  Gnorm:      9.936855  CPU:    0.260
 Line minimisation2
 ALPHA BEFORE:    5.0000000000000010E-003
  ** Opt : line minimisation
left   ...       0.00000000    -341.85429832
centre ...       0.00125000    -342.12606409
right  ...       0.00250000    -342.39719177

left   ...       0.00000000    -341.85429832
centre ...       0.00125000    -342.12606409
right  ...       0.00250000    -342.39719177
new    ...       0.10250000    -361.98990499

__s__    ...       0.10000000

left   ...       0.00125000    -342.12606409
centre ...       0.00250000    -342.39719177
right  ...       0.10250000    -361.98990499
new    ...       0.20250000    -377.77170842

__s__    ...       0.10000000

left   ...       0.00250000    -342.39719177
centre ...       0.10250000    -361.98990499
right  ...       0.20250000    -377.77170842
new    ...       0.30250000    -390.12795170

__s__    ...       0.10000000

left   ...       0.10250000    -361.98990499
centre ...       0.20250000    -377.77170842
right  ...       0.30250000    -390.12795170
new    ...       0.40250000    -399.30984986

__s__    ...       0.10000000

left   ...       0.20250000    -377.77170842
centre ...       0.30250000    -390.12795170
right  ...       0.40250000    -399.30984986
new    ...       0.50250000    -405.47957554

__s__    ...       0.10000000

left   ...       0.30250000    -390.12795170
centre ...       0.40250000    -399.30984986
right  ...       0.50250000    -405.47957554
new    ...       0.60250000    -408.74316022

__s__    ...       0.10000000

 ALPHA AFTER:   0.60249999999999992     
  Cycle:     45 Energy:      -408.743160  Gnorm:      4.312095  CPU:    0.267
 Line minimisation2
 ALPHA BEFORE:   0.60249999999999992     
  ** Opt : line minimisation
left   ...       0.00000000    -408.74316022
centre ...       0.10000000    -412.53860969
right  ...       0.20000000    -415.33102362

left   ...       0.00000000    -408.74316022
centre ...       0.10000000    -412.53860969
right  ...       0.20000000    -415.33102362
new    ...       0.30000000    -417.15776086

__s__    ...       0.10000000

left   ...       0.10000000    -412.53860969
centre ...       0.20000000    -415.33102362
right  ...       0.30000000    -417.15776086
new    ...       0.40000000    -418.05450022

__s__    ...       0.10000000

left   ...       0.20000000    -415.33102362
centre ...       0.30000000    -417.15776086
right  ...       0.40000000    -418.05450022
new    ...       0.44642381    -418.16225197

__s__    ...       0.04642381

 ALPHA AFTER:   0.44642380630468681     
  Cycle:     46 Energy:      -418.162252  Gnorm:      5.078228  CPU:    0.271
 Perform trimming
 Line minimisation2
 ALPHA BEFORE:   0.44642380630468681     
  ** Opt : line minimisation
left   ...       0.00000000    -418.16225197
centre ...       0.10000000    -422.70356398
right  ...       0.20000000    -426.61899013

left   ...       0.00000000    -418.16225197
centre ...       0.10000000    -422.70356398
right  ...       0.20000000    -426.61899013
new    ...       0.30000000    -429.84454376

__s__    ...       0.10000000

left   ...       0.10000000    -422.70356398
centre ...       0.20000000    -426.61899013
right  ...       0.30000000    -429.84454376
new    ...       0.40000000    -432.29693741

__s__    ...       0.10000000

left   ...       0.20000000    -426.61899013
centre ...       0.30000000    -429.84454376
right  ...       0.40000000    -432.29693741
new    ...       0.50000000    -433.86981970

__s__    ...       0.10000000

left   ...       0.30000000    -429.84454376
centre ...       0.40000000    -432.29693741
right  ...       0.50000000    -433.86981970
new    ...       0.60000000    -434.44371080

__s__    ...       0.10000000

left   ...       0.40000000    -432.29693741
centre ...       0.50000000    -433.86981970
right  ...       0.60000000    -434.44371080
new    ...       0.60744706    -434.44324072

__s__    ...       0.00744706

 ALPHA AFTER:   0.59999999999999998     
  Cycle:     47 Energy:      -434.443711  Gnorm:      3.966710  CPU:    0.277
 Line minimisation2
 ALPHA BEFORE:   0.59999999999999998     
  ** Opt : line minimisation
left   ...       0.00000000    -434.44371080
centre ...       0.10000000    -437.06116823
right  ...       0.20000000    -438.16966537

left   ...       0.00000000    -434.44371080
centre ...       0.10000000    -437.06116823
right  ...       0.20000000    -438.16966537
new    ...       0.22346099    -438.25454267

__s__    ...       0.02346099

 ALPHA AFTER:   0.22346098887944560     
  Cycle:     48 Energy:      -438.254543  Gnorm:      3.387876  CPU:    0.280
 Line minimisation2
 ALPHA BEFORE:   0.22346098887944560     
  ** Opt : line minimisation
left   ...       0.00000000    -438.25454267
centre ...       0.05586525    -439.60437926
right  ...       0.11173049    -440.59966279

left   ...       0.00000000    -438.25454267
centre ...       0.05586525    -439.60437926
right  ...       0.11173049    -440.59966279
new    ...       0.21173049    -441.59518936

__s__    ...       0.10000000

left   ...       0.05586525    -439.60437926
centre ...       0.11173049    -440.59966279
right  ...       0.21173049    -441.59518936
new    ...       0.26043128    -441.76010088

__s__    ...       0.04870079

 ALPHA AFTER:   0.26043128350045808     
  Cycle:     49 Energy:      -441.760101  Gnorm:      3.293453  CPU:    0.284
 Line minimisation2
 ALPHA BEFORE:   0.26043128350045808     
  ** Opt : line minimisation
left   ...       0.00000000    -441.76010088
centre ...       0.06510782    -443.09678581
right  ...       0.13021564    -443.88865345

left   ...       0.00000000    -441.76010088
centre ...       0.06510782    -443.09678581
right  ...       0.13021564    -443.88865345
new    ...       0.19229305    -444.10603746

__s__    ...       0.06207740

 ALPHA AFTER:   0.19229304533040739     
  Cycle:     50 Energy:      -444.106037  Gnorm:      2.425286  CPU:    0.287
 Line minimisation2
 ALPHA BEFORE:   0.19229304533040739     
  ** Opt : line minimisation
left   ...       0.00000000    -444.10603746
centre ...       0.04807326    -444.68437419
right  ...       0.09614652    -445.19493373

left   ...       0.00000000    -444.10603746
centre ...       0.04807326    -444.68437419
right  ...       0.09614652    -445.19493373
new    ...       0.19614652    -446.02889395

__s__    ...       0.10000000

left   ...       0.04807326    -444.68437419
centre ...       0.09614652    -445.19493373
right  ...       0.19614652    -446.02889395
new    ...       0.29614652    -446.53270693

__s__    ...       0.10000000

left   ...       0.09614652    -445.19493373
centre ...       0.19614652    -446.02889395
right  ...       0.29614652    -446.53270693
new    ...       0.39614652    -446.67700652

__s__    ...       0.10000000

 ALPHA AFTER:   0.39614652266520367     
  Cycle:     51 Energy:      -446.677007  Gnorm:      3.173608  CPU:    0.294
 Perform trimming
 Line minimisation2
 ALPHA BEFORE:   0.39614652266520367     
  ** Opt : line minimisation
left   ...       0.00000000    -446.67700652
centre ...       0.09903663    -448.20213423
right  ...       0.19807326    -449.48260396

left   ...       0.00000000    -446.67700652
centre ...       0.09903663    -448.20213423
right  ...       0.19807326    -449.48260396
new    ...       0.29807326    -450.50563689

__s__    ...       0.10000000

left   ...       0.09903663    -448.20213423
centre ...       0.19807326    -449.48260396
right  ...       0.29807326    -450.50563689
new    ...       0.39807326    -451.22771623

__s__    ...       0.10000000

left   ...       0.19807326    -449.48260396
centre ...       0.29807326    -450.50563689
right  ...       0.39807326    -451.22771623
new    ...       0.49807326    -451.60998850

__s__    ...       0.10000000

 ALPHA AFTER:   0.49807326133260177     
  Cycle:     52 Energy:      -451.609989  Gnorm:      2.884184  CPU:    0.299
 Line minimisation2
 ALPHA BEFORE:   0.49807326133260177     
  ** Opt : line minimisation
left   ...       0.00000000    -451.60998850
centre ...       0.10000000    -453.25820583
right  ...       0.20000000    -454.23422768

left   ...       0.00000000    -451.60998850
centre ...       0.10000000    -453.25820583
right  ...       0.20000000    -454.23422768
new    ...       0.29519911    -454.57708149

__s__    ...       0.09519911

 ALPHA AFTER:   0.29519911151097927     
  Cycle:     53 Energy:      -454.577081  Gnorm:      2.058526  CPU:    0.303
 Line minimisation2
 ALPHA BEFORE:   0.29519911151097927     
  ** Opt : line minimisation
left   ...       0.00000000    -454.57708149
centre ...       0.07379978    -455.26932778
right  ...       0.14759956    -455.88391391

left   ...       0.00000000    -454.57708149
centre ...       0.07379978    -455.26932778
right  ...       0.14759956    -455.88391391
new    ...       0.24759956    -456.59621012

__s__    ...       0.10000000

left   ...       0.07379978    -455.26932778
centre ...       0.14759956    -455.88391391
right  ...       0.24759956    -456.59621012
new    ...       0.34759956    -457.16722466

__s__    ...       0.10000000

left   ...       0.14759956    -455.88391391
centre ...       0.24759956    -456.59621012
right  ...       0.34759956    -457.16722466
new    ...       0.44759956    -457.60016792

__s__    ...       0.10000000

 ALPHA AFTER:   0.44759955575548960     
  Cycle:     54 Energy:      -457.600168  Gnorm:      1.806648  CPU:    0.309
 Line minimisation2
 ALPHA BEFORE:   0.44759955575548960     
  ** Opt : line minimisation
left   ...       0.00000000    -457.60016792
centre ...       0.10000000    -458.38126924
right  ...       0.20000000    -459.01160828

left   ...       0.00000000    -457.60016792
centre ...       0.10000000    -458.38126924
right  ...       0.20000000    -459.01160828
new    ...       0.30000000    -459.49878172

__s__    ...       0.10000000

left   ...       0.10000000    -458.38126924
centre ...       0.20000000    -459.01160828
right  ...       0.30000000    -459.49878172
new    ...       0.40000000    -459.84946395

__s__    ...       0.10000000

 ALPHA AFTER:   0.40000000000000002     
  Cycle:     55 Energy:      -459.849464  Gnorm:      1.661739  CPU:    0.315
 Line minimisation2
 ALPHA BEFORE:   0.40000000000000002     
  ** Opt : line minimisation
left   ...       0.00000000    -459.84946395
centre ...       0.10000000    -460.59080228
right  ...       0.20000000    -461.19093820

left   ...       0.00000000    -459.84946395
centre ...       0.10000000    -460.59080228
right  ...       0.20000000    -461.19093820
new    ...       0.30000000    -461.64090016

__s__    ...       0.10000000

left   ...       0.10000000    -460.59080228
centre ...       0.20000000    -461.19093820
right  ...       0.30000000    -461.64090016
new    ...       0.40000000    -461.92936054

__s__    ...       0.10000000

 ALPHA AFTER:   0.40000000000000002     
  Cycle:     56 Energy:      -461.929361  Gnorm:      1.209969  CPU:    0.322
 Line minimisation2
 ALPHA BEFORE:   0.40000000000000002     
  ** Opt : line minimisation
left   ...       0.00000000    -461.92936054
centre ...       0.10000000    -462.33723043
right  ...       0.20000000    -462.69273681

left   ...       0.00000000    -461.92936054
centre ...       0.10000000    -462.33723043
right  ...       0.20000000    -462.69273681
new    ...       0.30000000    -462.99381443

__s__    ...       0.10000000

left   ...       0.10000000    -462.33723043
centre ...       0.20000000    -462.69273681
right  ...       0.30000000    -462.99381443
new    ...       0.40000000    -463.23802983

__s__    ...       0.10000000

 ALPHA AFTER:   0.40000000000000002     
  Cycle:     57 Energy:      -463.238030  Gnorm:      1.037501  CPU:    0.328
 Line minimisation2
 ALPHA BEFORE:   0.40000000000000002     
  ** Opt : line minimisation
left   ...       0.00000000    -463.23802983
centre ...       0.10000000    -463.52123898
right  ...       0.20000000    -463.75506782

left   ...       0.00000000    -463.23802983
centre ...       0.10000000    -463.52123898
right  ...       0.20000000    -463.75506782
new    ...       0.30000000    -463.94141231

__s__    ...       0.10000000

left   ...       0.10000000    -463.52123898
centre ...       0.20000000    -463.75506782
right  ...       0.30000000    -463.94141231
new    ...       0.40000000    -464.08210116

__s__    ...       0.10000000

 ALPHA AFTER:   0.40000000000000002     
  Cycle:     58 Energy:      -464.082101  Gnorm:      0.900678  CPU:    0.334
 Line minimisation2
 ALPHA BEFORE:   0.40000000000000002     
  ** Opt : line minimisation
left   ...       0.00000000    -464.08210116
centre ...       0.10000000    -464.32043637
right  ...       0.20000000    -464.52996542

left   ...       0.00000000    -464.08210116
centre ...       0.10000000    -464.32043637
right  ...       0.20000000    -464.52996542
new    ...       0.30000000    -464.71061561

__s__    ...       0.10000000

left   ...       0.10000000    -464.32043637
centre ...       0.20000000    -464.52996542
right  ...       0.30000000    -464.71061561
new    ...       0.40000000    -464.86092127

__s__    ...       0.10000000

 ALPHA AFTER:   0.40000000000000002     
  Cycle:     59 Energy:      -464.860921  Gnorm:      0.701093  CPU:    0.340
 Line minimisation2
 ALPHA BEFORE:   0.40000000000000002     
  ** Opt : line minimisation
left   ...       0.00000000    -464.86092127
centre ...       0.10000000    -464.96563685
right  ...       0.20000000    -465.05507975

left   ...       0.00000000    -464.86092127
centre ...       0.10000000    -464.96563685
right  ...       0.20000000    -465.05507975
new    ...       0.30000000    -465.12881472

__s__    ...       0.10000000

left   ...       0.10000000    -464.96563685
centre ...       0.20000000    -465.05507975
right  ...       0.30000000    -465.12881472
new    ...       0.40000000    -465.18705725

__s__    ...       0.10000000

 ALPHA AFTER:   0.40000000000000002     
  Cycle:     60 Energy:      -465.187057  Gnorm:      0.681790  CPU:    0.346
 Line minimisation2
 ALPHA BEFORE:   0.40000000000000002     
  ** Opt : line minimisation
left   ...       0.00000000    -465.18705725
centre ...       0.10000000    -465.31065693
right  ...       0.20000000    -465.42164509

left   ...       0.00000000    -465.18705725
centre ...       0.10000000    -465.31065693
right  ...       0.20000000    -465.42164509
new    ...       0.30000000    -465.51975580

__s__    ...       0.10000000

left   ...       0.10000000    -465.31065693
centre ...       0.20000000    -465.42164509
right  ...       0.30000000    -465.51975580
new    ...       0.40000000    -465.60521247

__s__    ...       0.10000000

left   ...       0.20000000    -465.42164509
centre ...       0.30000000    -465.51975580
right  ...       0.40000000    -465.60521247
new    ...       0.50000000    -465.67767748

__s__    ...       0.10000000

 ALPHA AFTER:   0.50000000000000000     
  Cycle:     61 Energy:      -465.677677  Gnorm:      0.732177  CPU:    0.353
 Line minimisation2
 ALPHA BEFORE:   0.50000000000000000     
  ** Opt : line minimisation
left   ...       0.00000000    -465.67767748
centre ...       0.10000000    -465.85053370
right  ...       0.20000000    -466.00472493

left   ...       0.00000000    -465.67767748
centre ...       0.10000000    -465.85053370
right  ...       0.20000000    -466.00472493
new    ...       0.30000000    -466.13990026

__s__    ...       0.10000000

left   ...       0.10000000    -465.85053370
centre ...       0.20000000    -466.00472493
right  ...       0.30000000    -466.13990026
new    ...       0.40000000    -466.25409809

__s__    ...       0.10000000

 ALPHA AFTER:   0.40000000000000002     
  Cycle:     62 Energy:      -466.254098  Gnorm:      0.553249  CPU:    0.358
 Line minimisation2
 ALPHA BEFORE:   0.40000000000000002     
  ** Opt : line minimisation
left   ...       0.00000000    -466.25409809
centre ...       0.10000000    -466.35627855
right  ...       0.20000000    -466.44879090

left   ...       0.00000000    -466.25409809
centre ...       0.10000000    -466.35627855
right  ...       0.20000000    -466.44879090
new    ...       0.30000000    -466.52849508

__s__    ...       0.10000000

left   ...       0.10000000    -466.35627855
centre ...       0.20000000    -466.44879090
right  ...       0.30000000    -466.52849508
new    ...       0.40000000    -466.59689461

__s__    ...       0.10000000

 ALPHA AFTER:   0.40000000000000002     
  Cycle:     63 Energy:      -466.596895  Gnorm:      0.496417  CPU:    0.365
  ** Hessian calculated **
 Line minimisation2
 ALPHA BEFORE:    1.0000000000000000     
  ** Opt : line minimisation
left   ...       0.00000000    -466.59689461
centre ...       0.10000000    -466.70401811
right  ...       0.20000000    -466.80559237

left   ...       0.00000000    -466.59689461
centre ...       0.10000000    -466.70401811
right  ...       0.20000000    -466.80559237
new    ...       0.30000000    -466.90130005

__s__    ...       0.10000000

left   ...       0.10000000    -466.70401811
centre ...       0.20000000    -466.80559237
right  ...       0.30000000    -466.90130005
new    ...       0.40000000    -466.99152444

__s__    ...       0.10000000

left   ...       0.20000000    -466.80559237
centre ...       0.30000000    -466.90130005
right  ...       0.40000000    -466.99152444
new    ...       0.50000000    -467.07581795

__s__    ...       0.10000000

 ALPHA AFTER:   0.50000000000000000     
  Cycle:     64 Energy:      -467.075818  Gnorm:      0.408381  CPU:    0.374
 Line minimisation2
 ALPHA BEFORE:   0.33333333333333337     
  ** Opt : line minimisation
left   ...       0.00000000    -467.07581795
centre ...       0.08333333    -467.19477501
right  ...       0.16666667    -467.30892146

left   ...       0.00000000    -467.07581795
centre ...       0.08333333    -467.19477501
right  ...       0.16666667    -467.30892146
new    ...       0.26666667    -467.43932092

__s__    ...       0.10000000

left   ...       0.08333333    -467.19477501
centre ...       0.16666667    -467.30892146
right  ...       0.26666667    -467.43932092
new    ...       0.36666667    -467.56163996

__s__    ...       0.10000000

left   ...       0.16666667    -467.30892146
centre ...       0.26666667    -467.43932092
right  ...       0.36666667    -467.56163996
new    ...       0.46666667    -467.67540496

__s__    ...       0.10000000

 ALPHA AFTER:   0.46666666666666667     
  Cycle:     65 Energy:      -467.675405  Gnorm:      0.401343  CPU:    0.381
 Line minimisation2
 ALPHA BEFORE:   0.31111111111111112     
  ** Opt : line minimisation
left   ...       0.00000000    -467.67540496
centre ...       0.07777778    -467.81441909
right  ...       0.15555556    -467.94250090

left   ...       0.00000000    -467.67540496
centre ...       0.07777778    -467.81441909
right  ...       0.15555556    -467.94250090
new    ...       0.25555556    -468.09087568

__s__    ...       0.10000000

left   ...       0.07777778    -467.81441909
centre ...       0.15555556    -467.94250090
right  ...       0.25555556    -468.09087568
new    ...       0.35555556    -468.21607922

__s__    ...       0.10000000

left   ...       0.15555556    -467.94250090
centre ...       0.25555556    -468.09087568
right  ...       0.35555556    -468.21607922
new    ...       0.45555556    -468.31488924

__s__    ...       0.10000000

 ALPHA AFTER:   0.45555555555555549     
  Cycle:     66 Energy:      -468.314889  Gnorm:      0.355048  CPU:    0.387
 Line minimisation2
 ALPHA BEFORE:   0.61194708965521405     
  ** Opt : line minimisation
left   ...       0.00000000    -468.31488924
centre ...       0.10000000    -468.40426829
right  ...       0.20000000    -468.48427291

left   ...       0.00000000    -468.31488924
centre ...       0.10000000    -468.40426829
right  ...       0.20000000    -468.48427291
new    ...       0.30000000    -468.55329345

__s__    ...       0.10000000

left   ...       0.10000000    -468.40426829
centre ...       0.20000000    -468.48427291
right  ...       0.30000000    -468.55329345
new    ...       0.40000000    -468.61108714

__s__    ...       0.10000000

 ALPHA AFTER:   0.40000000000000002     
  Cycle:     67 Energy:      -468.611087  Gnorm:      0.308811  CPU:    0.392
 Line minimisation2
 ALPHA BEFORE:   0.42959848741306167     
  ** Opt : line minimisation
left   ...       0.00000000    -468.61108714
centre ...       0.10000000    -468.68465466
right  ...       0.20000000    -468.75125425

left   ...       0.00000000    -468.61108714
centre ...       0.10000000    -468.68465466
right  ...       0.20000000    -468.75125425
new    ...       0.30000000    -468.81065040

__s__    ...       0.10000000

left   ...       0.10000000    -468.68465466
centre ...       0.20000000    -468.75125425
right  ...       0.30000000    -468.81065040
new    ...       0.40000000    -468.86139253

__s__    ...       0.10000000

left   ...       0.20000000    -468.75125425
centre ...       0.30000000    -468.81065040
right  ...       0.40000000    -468.86139253
new    ...       0.50000000    -468.90359530

__s__    ...       0.10000000

 ALPHA AFTER:   0.50000000000000000     
  Cycle:     68 Energy:      -468.903595  Gnorm:      0.309507  CPU:    0.397
 Line minimisation2
 ALPHA BEFORE:   0.43320895421134081     
  ** Opt : line minimisation
left   ...       0.00000000    -468.90359530
centre ...       0.10000000    -468.97663964
right  ...       0.20000000    -469.03978982

left   ...       0.00000000    -468.90359530
centre ...       0.10000000    -468.97663964
right  ...       0.20000000    -469.03978982
[...]
right  ...       0.30000000    -469.26846860
new    ...       0.40000000    -469.30172662

__s__    ...       0.10000000

left   ...       0.20000000    -469.22811211
centre ...       0.30000000    -469.26846860
right  ...       0.40000000    -469.30172662
new    ...       0.50000000    -469.32994395

__s__    ...       0.10000000

 ALPHA AFTER:   0.50000000000000000     
  Cycle:     70 Energy:      -469.329944  Gnorm:      0.216367  CPU:    0.407
 Line minimisation2
 ALPHA BEFORE:   0.57361136338851726     
  ** Opt : line minimisation
left   ...       0.00000000    -469.32994395
centre ...       0.10000000    -469.36637578
right  ...       0.20000000    -469.39862197

left   ...       0.00000000    -469.32994395
centre ...       0.10000000    -469.36637578
right  ...       0.20000000    -469.39862197
new    ...       0.30000000    -469.42763750

__s__    ...       0.10000000

left   ...       0.10000000    -469.36637578
centre ...       0.20000000    -469.39862197
right  ...       0.30000000    -469.42763750
new    ...       0.40000000    -469.45253706

__s__    ...       0.10000000

left   ...       0.20000000    -469.39862197
centre ...       0.30000000    -469.42763750
right  ...       0.40000000    -469.45253706
new    ...       0.50000000    -469.47370212

__s__    ...       0.10000000

 ALPHA AFTER:   0.50000000000000000     
  Cycle:     71 Energy:      -469.473702  Gnorm:      0.202758  CPU:    0.413
 Line minimisation2
 ALPHA BEFORE:   0.64309589930290323     
  ** Opt : line minimisation
left   ...       0.00000000    -469.47370212
centre ...       0.10000000    -469.49945176
right  ...       0.20000000    -469.52258051

left   ...       0.00000000    -469.47370212
centre ...       0.10000000    -469.49945176
right  ...       0.20000000    -469.52258051
new    ...       0.30000000    -469.54328411

__s__    ...       0.10000000

left   ...       0.10000000    -469.49945176
centre ...       0.20000000    -469.52258051
right  ...       0.30000000    -469.54328411
new    ...       0.40000000    -469.56179238

__s__    ...       0.10000000

left   ...       0.20000000    -469.52258051
centre ...       0.30000000    -469.54328411
right  ...       0.40000000    -469.56179238
new    ...       0.50000000    -469.57776425

__s__    ...       0.10000000

 ALPHA AFTER:   0.50000000000000000     
  Cycle:     72 Energy:      -469.577764  Gnorm:      0.213559  CPU:    0.418
 Line minimisation2
 ALPHA BEFORE:   0.47774329237808266     
  ** Opt : line minimisation
left   ...       0.00000000    -469.57776425
centre ...       0.10000000    -469.60249003
right  ...       0.20000000    -469.62548755

left   ...       0.00000000    -469.57776425
centre ...       0.10000000    -469.60249003
right  ...       0.20000000    -469.62548755
new    ...       0.30000000    -469.64585648

__s__    ...       0.10000000

left   ...       0.10000000    -469.60249003
centre ...       0.20000000    -469.62548755
right  ...       0.30000000    -469.64585648
new    ...       0.40000000    -469.66413106

__s__    ...       0.10000000

left   ...       0.20000000    -469.62548755
centre ...       0.30000000    -469.64585648
right  ...       0.40000000    -469.66413106
new    ...       0.50000000    -469.67994762

__s__    ...       0.10000000

 ALPHA AFTER:   0.50000000000000000     
  Cycle:     73 Energy:      -469.679948  Gnorm:      0.197785  CPU:    0.424
  ** Hessian calculated **
 Line minimisation2
 ALPHA BEFORE:    1.0000000000000000     
  ** Opt : line minimisation
left   ...       0.00000000    -469.67994762
centre ...       0.10000000    -469.70966934
right  ...       0.20000000    -469.73835490

left   ...       0.00000000    -469.67994762
centre ...       0.10000000    -469.70966934
right  ...       0.20000000    -469.73835490
new    ...       0.30000000    -469.76641535

__s__    ...       0.10000000

left   ...       0.10000000    -469.70966934
centre ...       0.20000000    -469.73835490
right  ...       0.30000000    -469.76641535
new    ...       0.40000000    -469.79383434

__s__    ...       0.10000000

left   ...       0.20000000    -469.73835490
centre ...       0.30000000    -469.76641535
right  ...       0.40000000    -469.79383434
new    ...       0.50000000    -469.82098272

__s__    ...       0.10000000

 ALPHA AFTER:   0.50000000000000000     
  Cycle:     74 Energy:      -469.820983  Gnorm:      0.175862  CPU:    0.431
 Line minimisation2
 ALPHA BEFORE:   0.33333333333333337     
  ** Opt : line minimisation
left   ...       0.00000000    -469.82098272
centre ...       0.08333333    -469.85283952
right  ...       0.16666667    -469.88395696

left   ...       0.00000000    -469.82098272
centre ...       0.08333333    -469.85283952
right  ...       0.16666667    -469.88395696
new    ...       0.26666667    -469.91969023

__s__    ...       0.10000000

left   ...       0.08333333    -469.85283952
centre ...       0.16666667    -469.88395696
right  ...       0.26666667    -469.91969023
new    ...       0.36666667    -469.95430009

__s__    ...       0.10000000

left   ...       0.16666667    -469.88395696
centre ...       0.26666667    -469.91969023
right  ...       0.36666667    -469.95430009
new    ...       0.46666667    -469.98757944

__s__    ...       0.10000000

 ALPHA AFTER:   0.46666666666666667     
  Cycle:     75 Energy:      -469.987579  Gnorm:      0.149780  CPU:    0.436
 Line minimisation2
 ALPHA BEFORE:   0.31111111111111112     
  ** Opt : line minimisation
left   ...       0.00000000    -469.98757944
centre ...       0.07777778    -470.02394606
right  ...       0.15555556    -470.05879447

left   ...       0.00000000    -469.98757944
centre ...       0.07777778    -470.02394606
right  ...       0.15555556    -470.05879447
new    ...       0.25555556    -470.10131083

__s__    ...       0.10000000

left   ...       0.07777778    -470.02394606
centre ...       0.15555556    -470.05879447
right  ...       0.25555556    -470.10131083
new    ...       0.35555556    -470.14103695

__s__    ...       0.10000000

left   ...       0.15555556    -470.05879447
centre ...       0.25555556    -470.10131083
right  ...       0.35555556    -470.14103695
new    ...       0.45555556    -470.17784026

__s__    ...       0.10000000

 ALPHA AFTER:   0.45555555555555549     
  Cycle:     76 Energy:      -470.177840  Gnorm:      0.119691  CPU:    0.442
 Line minimisation2
 ALPHA BEFORE:   0.30370370370370364     
  ** Opt : line minimisation
left   ...       0.00000000    -470.17784026
centre ...       0.07592593    -470.21704992
right  ...       0.15185185    -470.25301423

left   ...       0.00000000    -470.17784026
centre ...       0.07592593    -470.21704992
right  ...       0.15185185    -470.25301423
new    ...       0.25185185    -470.29609538

__s__    ...       0.10000000

left   ...       0.07592593    -470.21704992
centre ...       0.15185185    -470.25301423
right  ...       0.25185185    -470.29609538
new    ...       0.35185185    -470.33367021

__s__    ...       0.10000000

left   ...       0.15185185    -470.25301423
centre ...       0.25185185    -470.29609538
right  ...       0.35185185    -470.33367021
new    ...       0.45185185    -470.36436863

__s__    ...       0.10000000

 ALPHA AFTER:   0.45185185185185184     
  Cycle:     77 Energy:      -470.364369  Gnorm:      0.100285  CPU:    0.447
 Line minimisation2
 ALPHA BEFORE:   0.91967044783942398     
  ** Opt : line minimisation
left   ...       0.00000000    -470.36436863
centre ...       0.10000000    -470.38149443
right  ...       0.20000000    -470.39626907

left   ...       0.00000000    -470.36436863
centre ...       0.10000000    -470.38149443
right  ...       0.20000000    -470.39626907
new    ...       0.30000000    -470.40903169

__s__    ...       0.10000000

left   ...       0.10000000    -470.38149443
centre ...       0.20000000    -470.39626907
right  ...       0.30000000    -470.40903169
new    ...       0.40000000    -470.42039490

__s__    ...       0.10000000

left   ...       0.20000000    -470.39626907
centre ...       0.30000000    -470.40903169
right  ...       0.40000000    -470.42039490
new    ...       0.50000000    -470.42927029

__s__    ...       0.10000000

 ALPHA AFTER:   0.50000000000000000     
  Cycle:     78 Energy:      -470.429270  Gnorm:      0.075750  CPU:    0.452
 Line minimisation2
 ALPHA BEFORE:   0.97211866214019660     
  ** Opt : line minimisation
left   ...       0.00000000    -470.42927029
centre ...       0.10000000    -470.43402756
right  ...       0.20000000    -470.43786770

left   ...       0.00000000    -470.42927029
centre ...       0.10000000    -470.43402756
right  ...       0.20000000    -470.43786770
new    ...       0.30000000    -470.44164058

__s__    ...       0.10000000

left   ...       0.10000000    -470.43402756
centre ...       0.20000000    -470.43786770
right  ...       0.30000000    -470.44164058
new    ...       0.40000000    -470.44497031

__s__    ...       0.10000000

left   ...       0.20000000    -470.43786770
centre ...       0.30000000    -470.44164058
right  ...       0.40000000    -470.44497031
new    ...       0.50000000    -470.44750015

__s__    ...       0.10000000

 ALPHA AFTER:   0.50000000000000000     
  Cycle:     79 Energy:      -470.447500  Gnorm:      0.058842  CPU:    0.458
 Line minimisation2
 ALPHA BEFORE:    1.2569564957361641     
  ** Opt : line minimisation
left   ...       0.00000000    -470.44750015
centre ...       0.10000000    -470.44969935
right  ...       0.20000000    -470.45144183

left   ...       0.00000000    -470.44750015
centre ...       0.10000000    -470.44969935
right  ...       0.20000000    -470.45144183
new    ...       0.30000000    -470.45272919

__s__    ...       0.10000000

left   ...       0.10000000    -470.44969935
centre ...       0.20000000    -470.45144183
right  ...       0.30000000    -470.45272919
new    ...       0.40000000    -470.45354304

__s__    ...       0.10000000

 ALPHA AFTER:   0.40000000000000002     
  Cycle:     80 Energy:      -470.453543  Gnorm:      0.038100  CPU:    0.462
 Line minimisation2
 ALPHA BEFORE:   0.39398581568435614     
  ** Opt : line minimisation
left   ...       0.00000000    -470.45354304
centre ...       0.09849645    -470.45435874
right  ...       0.19699291    -470.45556885

left   ...       0.00000000    -470.45354304
centre ...       0.09849645    -470.45435874
right  ...       0.19699291    -470.45556885
new    ...       0.29699291    -470.45595524

__s__    ...       0.10000000

 ALPHA AFTER:   0.29699290784217808     
  Cycle:     81 Energy:      -470.455955  Gnorm:      0.025174  CPU:    0.466
 Line minimisation2
 ALPHA BEFORE:   0.93808462693148165     
  ** Opt : line minimisation
left   ...       0.00000000    -470.45595524
centre ...       0.10000000    -470.45636941
right  ...       0.20000000    -470.45658017

left   ...       0.00000000    -470.45595524
centre ...       0.10000000    -470.45636941
right  ...       0.20000000    -470.45658017
new    ...       0.25361678    -470.45668146

__s__    ...       0.05361678

 ALPHA AFTER:   0.25361678321078956     
  Cycle:     82 Energy:      -470.456681  Gnorm:      0.018822  CPU:    0.470
 Line minimisation2
 ALPHA BEFORE:   0.30506227082995596     
  ** Opt : line minimisation
left   ...       0.00000000    -470.45668146
centre ...       0.07626557    -470.45679329
right  ...       0.15253114    -470.45689337

left   ...       0.00000000    -470.45668146
centre ...       0.07626557    -470.45679329
right  ...       0.15253114    -470.45689337
new    ...       0.25253114    -470.45700681

__s__    ...       0.10000000

left   ...       0.07626557    -470.45679329
centre ...       0.15253114    -470.45689337
right  ...       0.25253114    -470.45700681
new    ...       0.35253114    -470.45692527

__s__    ...       0.10000000

left   ...       0.15253114    -470.45689337
centre ...       0.25253114    -470.45700681
right  ...       0.35253114    -470.45692527
new    ...       0.26071052    -470.45701520

__s__    ...      -0.09182061

left   ...       0.25253114    -470.45700681
centre ...       0.26071052    -470.45701520
right  ...       0.35253114    -470.45692527
new    ...       0.28219520    -470.45686161

__s__    ...       0.02148468

left   ...       0.25253114    -470.45700681
centre ...       0.26071052    -470.45701520
right  ...       0.28219520    -470.45686161
new    ...       0.25848156    -470.45701293

__s__    ...      -0.02371364

left   ...       0.25848156    -470.45701293
centre ...       0.26071052    -470.45701520
right  ...       0.28219520    -470.45686161
new    ...       0.26107592    -470.45701557

__s__    ...       0.00259436

 ALPHA AFTER:   0.26107591806492653     
  Cycle:     83 Energy:      -470.457016  Gnorm:      0.014651  CPU:    0.478
  ** Hessian calculated **
 Line minimisation2
 ALPHA BEFORE:    1.0000000000000000     
  ** Opt : line minimisation
left   ...       0.00000000    -470.45701557
centre ...       0.10000000    -470.45692707
right  ...      -0.10000000    -470.45692033

left   ...      -0.10000000    -470.45692033
centre ...       0.00000000    -470.45701557
right  ...       0.10000000    -470.45692707
new    ...       0.00000000    -470.45701557

__s__    ...       0.10000000

 ALPHA AFTER:    0.0000000000000000     
  Cycle:     84 Energy:      -470.457016  Gnorm:      0.014651  CPU:    0.484
  ** Hessian calculated **
 Line minimisation2
 ALPHA BEFORE:    1.0000000000000000     
  ** Opt : line minimisation
left   ...       0.00000000    -470.45701557
centre ...       0.10000000    -470.45692707
right  ...      -0.10000000    -470.45692033

left   ...      -0.10000000    -470.45692033
centre ...       0.00000000    -470.45701557
right  ...       0.10000000    -470.45692707
new    ...       0.00000000    -470.45701557

__s__    ...       0.10000000

 ALPHA AFTER:    0.0000000000000000     


  **** Conditions for a minimum have not been satisfied. However ****
  **** no lower point can be found - treat results with caution  ****
  **** unless gradient norm is small (less than 0.1)             ****


  Final energy =    -470.45701557 eV
  Final Gnorm  =       0.01465050

  Components of energy : 

--------------------------------------------------------------------------------
  Interatomic potentials     =          70.42495843 eV    
  Monopole - monopole (real) =        -256.46087884 eV    
  Monopole - monopole (recip)=        -284.42109515 eV    
  Monopole - monopole (total)=        -540.88197400 eV    
--------------------------------------------------------------------------------
  Total lattice energy       =        -470.45701557 eV    
--------------------------------------------------------------------------------
  Total lattice energy       =          -45391.9104 kJ/(mole unit cells)
--------------------------------------------------------------------------------

  Final fractional coordinates of atoms :

--------------------------------------------------------------------------------
   No.  Atomic        x           y          z          Radius
        Label       (Frac)      (Frac)     (Frac)       (Angs) 
--------------------------------------------------------------------------------
     1  O     c     0.500000    0.500000    0.750000    0.000000
     2  O     c     0.473543    0.019102    0.780703    0.000000
     3  O     c     0.084129    0.667661    0.636642    0.000000
     4  O     c     0.814285    0.338976    0.967336    0.000000
     5  O     c     0.770702    0.990583    0.253091    0.000000
     6  O     c     0.368114    0.158779    0.122123    0.000000
     7  O     c     0.361473    0.643294    0.092590    0.000000
     8  O     c     0.569100    0.655606    0.417966    0.000000
     9  O     c     0.269945    0.006575    0.451963    0.000000
    10  Sr    c     0.971781    0.468301    0.277909    0.000000
    11  Sr    c     0.968523    0.836669    0.956774    0.000000
    12  Sr    c     0.893661    0.193848    0.603780    0.000000
    13  Ti    c     0.392458    0.733588    0.620444    0.000000
    14  Ti    c     0.492237    0.331628    0.946075    0.000000
    15  Ti    c     0.463626    0.921312    0.258751    0.000000
--------------------------------------------------------------------------------

  Final Cartesian lattice vectors (Angstroms) :

        5.663554    0.133085    0.080865
        0.133085    5.230927   -0.516701
        0.161731   -1.033402    7.717178


  Final cell parameters and derivatives :

--------------------------------------------------------------------------------
       a            5.665695 Angstrom     dE/de1(xx)    -0.276618 eV/strain
       b            5.258069 Angstrom     dE/de2(yy)    -0.178086 eV/strain
       c            7.787741 Angstrom     dE/de3(zz)    -0.041351 eV/strain
       alpha      103.230154 Degrees      dE/de4(yz)     0.011752 eV/strain
       beta        88.178492 Degrees      dE/de5(xz)     0.031365 eV/strain
       gamma       87.290791 Degrees      dE/de6(xy)    -0.024988 eV/strain
--------------------------------------------------------------------------------

  Primitive cell volume =           225.374893 Angs**3

  Density of cell =      4.056092 g/cm**3

  Non-primitive cell volume =           225.374893 Angs**3


  Final internal derivatives :

--------------------------------------------------------------------------------
   No.  Atomic          a             b             c           Radius
        Label          (eV)          (eV)          (eV)        (eV/Angs)
--------------------------------------------------------------------------------
      1 O     c       0.000000      0.000000      0.000000      0.000000
      2 O     c       0.010951     -0.014153     -0.077380      0.000000
      3 O     c       0.152029      0.039881     -0.084636      0.000000
      4 O     c      -0.120529      0.000707     -0.156474      0.000000
      5 O     c      -0.212811     -0.014676      0.071763      0.000000
      6 O     c       0.006632     -0.026293      0.041424      0.000000
      7 O     c       0.030348      0.077637      0.225842      0.000000
      8 O     c       0.034614     -0.009886      0.173357      0.000000
      9 O     c       0.052981     -0.108595      0.163697      0.000000
     10 Sr    c      -0.001245      0.034186     -0.079164      0.000000
     11 Sr    c       0.001035      0.015816      0.045771      0.000000
     12 Sr    c       0.016058     -0.022884      0.001241      0.000000
     13 Ti    c      -0.189482      0.079897     -0.131477      0.000000
     14 Ti    c       0.104714      0.026634     -0.075370      0.000000
     15 Ti    c       0.051516     -0.000015     -0.178042      0.000000
--------------------------------------------------------------------------------
  Maximum abs         0.212811      0.108595      0.225842      0.000000
--------------------------------------------------------------------------------


  Time to end of optimisation =       0.4893 seconds

 Exiting ------OPTIONS------

  Peak dynamic memory used =       0.60 MB 


  Timing analysis for GULP :

--------------------------------------------------------------------------------
  Task / Subroutine                                          Time (Seconds)
--------------------------------------------------------------------------------
  Calculation of reciprocal space energy and derivatives          0.0654
  Calculation of real space energy and derivatives                0.4085
  Calculation of matrix inversion                                 0.0001
  Global summation overhead                                       0.0004
--------------------------------------------------------------------------------
  Total CPU time                                                  0.4893
--------------------------------------------------------------------------------


  Job Finished at 16:30.42  3rd February   2020                               

