********************************************************************************
*                       GENERAL UTILITY LATTICE PROGRAM                        *
*                                 Julian Gale                                  *
*                       Curtin Institute for Computation                       *
*                           Department of Chemistry                            *
*                    Curtin University, Western Australia                      *
********************************************************************************
* Version = 5.1.1 * Last modified =  25th August 2019                          *
********************************************************************************
*  optimise     - perform optimisation run                                     *
*  conp         - constant pressure calculation                                *
*  nosymmetry   - turn off symmetry after initial structure generation         *
*  full         - generate full unit cell when symmetry is removed             *
*  conjugate    - use conjugate gradients minimiser                            *
********************************************************************************
* ASE calculation                                                              *
********************************************************************************


  Job Started  at 16:29.46  3rd February   2020                               

  Number of CPUs =     1


  Total number of configurations input =      1

********************************************************************************
*  Input for Configuration =   1                                               *
********************************************************************************

  Formula = O9Sr3Ti3                                                    

  Number of irreducible atoms/shells =      15


  Total number atoms/shells =      15

  Dimensionality = 3               :  Bulk   



  Cartesian lattice vectors (Angstroms) :

        6.000000    0.000000    0.000000
        0.000000    6.000000    0.000000
        0.000000    0.000000   12.000000

  Cell parameters (Angstroms/Degrees):

  a =       6.0000    alpha =  90.0000
  b =       6.0000    beta  =  90.0000
  c =      12.0000    gamma =  90.0000

  Initial cell volume =         432.000000 Angs**3

  Temperature of configuration =  0.000     K 

  Pressure of configuration =         0.000 GPa 

  Fractional coordinates of asymmetric unit :

--------------------------------------------------------------------------------
   No.  Atomic       x           y          z         Charge      Occupancy
        Label      (Frac)      (Frac)     (Frac)        (e)         (Frac)  
--------------------------------------------------------------------------------
      1 O     c    0.000000    0.333330    0.833330    -2.00000    1.000000    
      2 O     c    0.666670 *  0.666670 *  0.000000 *  -2.00000    1.000000    
      3 O     c    0.333330 *  0.666670 *  0.166670 *  -2.00000    1.000000    
      4 O     c    0.333330 *  0.000000 *  0.166670 *  -2.00000    1.000000    
      5 O     c    0.333330 *  0.333330 *  0.166670 *  -2.00000    1.000000    
      6 O     c    0.333330 *  0.333330 *  0.833330 *  -2.00000    1.000000    
      7 O     c    0.333330 *  0.000000 *  0.500000 *  -2.00000    1.000000    
      8 O     c    0.666670 *  0.000000 *  0.000000 *  -2.00000    1.000000    
      9 O     c    0.666670 *  0.000000 *  0.166670 *  -2.00000    1.000000    
     10 Sr    c    0.500000 *  0.833330 *  0.916670 *   2.00000    1.000000    
     11 Sr    c    0.166670 *  0.500000 *  0.916670 *   2.00000    1.000000    
     12 Sr    c    0.166670 *  0.833330 *  0.416670 *   2.00000    1.000000    
     13 Ti    c    0.833330 *  0.500000 *  0.416670 *   4.00000    1.000000    
     14 Ti    c    0.166670 *  0.166670 *  0.916670 *   4.00000    1.000000    
     15 Ti    c    0.833330 *  0.833330 *  0.583330 *   4.00000    1.000000    
--------------------------------------------------------------------------------



********************************************************************************
*  General input information                                                   *
********************************************************************************

  Species output for all configurations : 

--------------------------------------------------------------------------------
  Species    Type    Atomic    Atomic    Charge       Radii (Angs)     Library
                     Number     Mass       (e)     Cova   Ionic  VDW   Symbol
--------------------------------------------------------------------------------
    O        Core        8      16.00  -2.000000   0.730  0.000  1.360          
    Sr       Core       38      87.62   2.000000   1.120  0.000  1.670          
    Ti       Core       22      47.88   4.000000   1.470  0.000  2.190          
--------------------------------------------------------------------------------


  Lattice summation method               =    Ewald          (3-D)
                                         =    Parry          (2-D)
                                         =    Saunders et al (1-D)
  Accuracy factor for lattice sums       =   12.000


  Time limit = Infinity

  Maximum range for interatomic potentials =    100000.000000 Angstroms

  General interatomic potentials :

--------------------------------------------------------------------------------
Atom  Types   Potential      Parameter       Value         Units   Cutoffs(Ang)
  1     2                                                            Min /  Max 
--------------------------------------------------------------------------------
O    c Sr   c Buckingham    Buckingham A     1952.3900    eV        0.000 10.000
                            Buckingham rho  0.33685000    Ang       
                            Buckingham C     19.220000    eV*Ang^6  
--------------------------------------------------------------------------------
O    c Ti   c Buckingham    Buckingham A     4590.7279    eV        0.000 10.000
                            Buckingham rho  0.26100000    Ang       
                            Buckingham C     0.0000000    eV*Ang^6  
--------------------------------------------------------------------------------
O    c O    c Buckingham    Buckingham A     1388.7700    eV        0.000 10.000
                            Buckingham rho  0.36262000    Ang       
                            Buckingham C     175.00000    eV*Ang^6  
--------------------------------------------------------------------------------
 Calling ------OPTIONS------

********************************************************************************
*  Output for configuration   1                                                *
********************************************************************************


  Components of energy : 

--------------------------------------------------------------------------------
  Interatomic potentials     =          86.73882635 eV    
  Monopole - monopole (real) =         -15.03500613 eV    
  Monopole - monopole (recip)=        -125.05826005 eV    
  Monopole - monopole (total)=        -140.09326618 eV    
--------------------------------------------------------------------------------
  Total lattice energy       =         -53.35443983 eV    
--------------------------------------------------------------------------------
  Total lattice energy       =           -5147.8878 kJ/(mole unit cells)
--------------------------------------------------------------------------------


  Number of variables =       48

  Maximum number of calculations  =          1000
  Maximum Hessian update interval =            10
  Maximum step size               =   0.001000000
  Maximum parameter tolerance     =   0.000010000
  Maximum function  tolerance     =   0.000010000
  Maximum gradient  tolerance     =   0.001000000
  Maximum gradient  component     =   0.010000000

  Cell parameters to be optimised using strains

  Conjugate gradient optimiser to be used

  Lower half triangular hessian to be used

  Minimiser to switch to BFGS with exact hessian
  When gradient norm is less than     0.500000

  Switch max step size to       0.10000000 when gnorm is less than    10.000000

  Start of bulk optimisation :

  Cycle:      0 Energy:       -53.354440  Gnorm:     31.391907  CPU:    0.012
 Perform trimming
 Line minimisation2
 ALPHA BEFORE:    1.0000000000000000     
  ** Opt : line minimisation
left   ...       0.00000000     -53.35443983
centre ...       0.00100000     -53.65256481
right  ...       0.00200000     -53.95106019

left   ...       0.00000000     -53.35443983
centre ...       0.00100000     -53.65256481
right  ...       0.00200000     -53.95106019
new    ...       0.00300000     -54.24922626

__s__    ...       0.00100000

left   ...       0.00100000     -53.65256481
centre ...       0.00200000     -53.95106019
right  ...       0.00300000     -54.24922626
new    ...       0.00400000     -54.54706330

__s__    ...       0.00100000

left   ...       0.00200000     -53.95106019
centre ...       0.00300000     -54.24922626
right  ...       0.00400000     -54.54706330
new    ...       0.00500000     -54.84457165

__s__    ...       0.00100000

 ALPHA AFTER:    5.0000000000000010E-003
  Cycle:      1 Energy:       -54.844572  Gnorm:     31.219937  CPU:    0.024
 Perform trimming
 Line minimisation2
 ALPHA BEFORE:    5.0000000000000010E-003
  ** Opt : line minimisation
left   ...       0.00000000     -54.84457165
centre ...       0.00100000     -55.29022361
right  ...       0.00200000     -55.73514154

left   ...       0.00000000     -54.84457165
centre ...       0.00100000     -55.29022361
right  ...       0.00200000     -55.73514154
new    ...       0.00300000     -56.17932646

__s__    ...       0.00100000

left   ...       0.00100000     -55.29022361
centre ...       0.00200000     -55.73514154
right  ...       0.00300000     -56.17932646
new    ...       0.00400000     -56.62277944

__s__    ...       0.00100000

left   ...       0.00200000     -55.73514154
centre ...       0.00300000     -56.17932646
right  ...       0.00400000     -56.62277944
new    ...       0.00500000     -57.06550151

__s__    ...       0.00100000

 ALPHA AFTER:    5.0000000000000010E-003
  Cycle:      2 Energy:       -57.065502  Gnorm:     30.964878  CPU:    0.031
 Perform trimming
 Line minimisation2
 ALPHA BEFORE:    5.0000000000000010E-003
  ** Opt : line minimisation
left   ...       0.00000000     -57.06550151
centre ...       0.00100000     -57.72823340
right  ...       0.00200000     -58.38933927

left   ...       0.00000000     -57.06550151
centre ...       0.00100000     -57.72823340
right  ...       0.00200000     -58.38933927
new    ...       0.00300000     -59.04882264

__s__    ...       0.00100000

left   ...       0.00100000     -57.72823340
centre ...       0.00200000     -58.38933927
right  ...       0.00300000     -59.04882264
new    ...       0.00400000     -59.70668702

__s__    ...       0.00100000

left   ...       0.00200000     -58.38933927
centre ...       0.00300000     -59.04882264
right  ...       0.00400000     -59.70668702
new    ...       0.00500000     -60.36293598

__s__    ...       0.00100000

left   ...       0.00300000     -59.04882264
centre ...       0.00400000     -59.70668702
right  ...       0.00500000     -60.36293598
new    ...       0.00600000     -61.01757305

__s__    ...       0.00100000

left   ...       0.00400000     -59.70668702
centre ...       0.00500000     -60.36293598
right  ...       0.00600000     -61.01757305
new    ...       0.00700000     -61.67060183

__s__    ...       0.00100000

left   ...       0.00500000     -60.36293598
centre ...       0.00600000     -61.01757305
right  ...       0.00700000     -61.67060183
new    ...       0.00800000     -62.32202591

__s__    ...       0.00100000

 ALPHA AFTER:    8.0000000000000019E-003
  Cycle:      3 Energy:       -62.322026  Gnorm:     30.366455  CPU:    0.040
 Perform trimming
 Line minimisation2
 ALPHA BEFORE:    8.0000000000000019E-003
  ** Opt : line minimisation
left   ...       0.00000000     -62.32202591
centre ...       0.00100000     -63.29628361
right  ...       0.00200000     -64.26701680

left   ...       0.00000000     -62.32202591
centre ...       0.00100000     -63.29628361
right  ...       0.00200000     -64.26701680
new    ...       0.00300000     -65.23423717

__s__    ...       0.00100000

left   ...       0.00100000     -63.29628361
centre ...       0.00200000     -64.26701680
right  ...       0.00300000     -65.23423717
new    ...       0.00400000     -66.19795647

__s__    ...       0.00100000

left   ...       0.00200000     -64.26701680
centre ...       0.00300000     -65.23423717
right  ...       0.00400000     -66.19795647
new    ...       0.00500000     -67.15818652

__s__    ...       0.00100000

left   ...       0.00300000     -65.23423717
centre ...       0.00400000     -66.19795647
right  ...       0.00500000     -67.15818652
new    ...       0.00600000     -68.11493920

__s__    ...       0.00100000

left   ...       0.00400000     -66.19795647
centre ...       0.00500000     -67.15818652
right  ...       0.00600000     -68.11493920
new    ...       0.00700000     -69.06822644

__s__    ...       0.00100000

left   ...       0.00500000     -67.15818652
centre ...       0.00600000     -68.11493920
right  ...       0.00700000     -69.06822644
new    ...       0.00800000     -70.01806024

__s__    ...       0.00100000

 ALPHA AFTER:    8.0000000000000019E-003
  Cycle:      4 Energy:       -70.018060  Gnorm:     29.506604  CPU:    0.047
 Perform trimming
 Line minimisation2
 ALPHA BEFORE:    8.0000000000000019E-003
  ** Opt : line minimisation
left   ...       0.00000000     -70.01806024
centre ...       0.00100000     -71.43675329
right  ...       0.00200000     -72.84795303

left   ...       0.00000000     -70.01806024
centre ...       0.00100000     -71.43675329
right  ...       0.00200000     -72.84795303
new    ...       0.00300000     -74.25167829

__s__    ...       0.00100000

left   ...       0.00100000     -71.43675329
centre ...       0.00200000     -72.84795303
right  ...       0.00300000     -74.25167829
new    ...       0.00400000     -75.64800570

__s__    ...       0.00100000

left   ...       0.00200000     -72.84795303
centre ...       0.00300000     -74.25167829
right  ...       0.00400000     -75.64800570
new    ...       0.00500000     -77.03695441

__s__    ...       0.00100000

left   ...       0.00300000     -74.25167829
centre ...       0.00400000     -75.64800570
right  ...       0.00500000     -77.03695441
new    ...       0.00600000     -78.41854381

__s__    ...       0.00100000

left   ...       0.00400000     -75.64800570
centre ...       0.00500000     -77.03695441
right  ...       0.00600000     -78.41854381
new    ...       0.00700000     -79.79285105

__s__    ...       0.00100000

left   ...       0.00500000     -77.03695441
centre ...       0.00600000     -78.41854381
right  ...       0.00700000     -79.79285105
new    ...       0.00800000     -81.15985733

__s__    ...       0.00100000

 ALPHA AFTER:    8.0000000000000019E-003
  Cycle:      5 Energy:       -81.159857  Gnorm:     28.298078  CPU:    0.053
 Line minimisation2
 ALPHA BEFORE:    8.0000000000000019E-003
  ** Opt : line minimisation
left   ...       0.00000000     -81.15985733
centre ...       0.00100000     -82.94527149
right  ...       0.00200000     -84.71882907

left   ...       0.00000000     -81.15985733
centre ...       0.00100000     -82.94527149
right  ...       0.00200000     -84.71882907
new    ...       0.00300000     -86.48060898

__s__    ...       0.00100000

left   ...       0.00100000     -82.94527149
centre ...       0.00200000     -84.71882907
right  ...       0.00300000     -86.48060898
new    ...       0.00400000     -88.23067110

__s__    ...       0.00100000

left   ...       0.00200000     -84.71882907
centre ...       0.00300000     -86.48060898
right  ...       0.00400000     -88.23067110
new    ...       0.00500000     -89.96909471

__s__    ...       0.00100000

left   ...       0.00300000     -86.48060898
centre ...       0.00400000     -88.23067110
right  ...       0.00500000     -89.96909471
new    ...       0.00600000     -91.69595917

__s__    ...       0.00100000

left   ...       0.00400000     -88.23067110
centre ...       0.00500000     -89.96909471
right  ...       0.00600000     -91.69595917
new    ...       0.00700000     -93.41132471

__s__    ...       0.00100000

left   ...       0.00500000     -89.96909471
centre ...       0.00600000     -91.69595917
right  ...       0.00700000     -93.41132471
new    ...       0.00800000     -95.11530922

__s__    ...       0.00100000

 ALPHA AFTER:    8.0000000000000019E-003
  Cycle:      6 Energy:       -95.115309  Gnorm:     26.849708  CPU:    0.059
 Line minimisation2
 ALPHA BEFORE:    8.0000000000000019E-003
  ** Opt : line minimisation
left   ...       0.00000000     -95.11530922
centre ...       0.00100000     -96.68950644
right  ...       0.00200000     -98.25447068

left   ...       0.00000000     -95.11530922
centre ...       0.00100000     -96.68950644
right  ...       0.00200000     -98.25447068
new    ...       0.00300000     -99.81029462

__s__    ...       0.00100000

left   ...       0.00100000     -96.68950644
centre ...       0.00200000     -98.25447068
right  ...       0.00300000     -99.81029462
new    ...       0.00400000    -101.35716971

__s__    ...       0.00100000

left   ...       0.00200000     -98.25447068
centre ...       0.00300000     -99.81029462
right  ...       0.00400000    -101.35716971
new    ...       0.00500000    -102.89483777

__s__    ...       0.00100000

left   ...       0.00300000     -99.81029462
centre ...       0.00400000    -101.35716971
right  ...       0.00500000    -102.89483777
new    ...       0.00600000    -104.42350847

__s__    ...       0.00100000

left   ...       0.00400000    -101.35716971
centre ...       0.00500000    -102.89483777
right  ...       0.00600000    -104.42350847
new    ...       0.00700000    -105.94341073

__s__    ...       0.00100000

left   ...       0.00500000    -102.89483777
centre ...       0.00600000    -104.42350847
right  ...       0.00700000    -105.94341073
new    ...       0.00800000    -107.45424868

__s__    ...       0.00100000

 ALPHA AFTER:    8.0000000000000019E-003
  Cycle:      7 Energy:      -107.454249  Gnorm:     25.634239  CPU:    0.065
 Line minimisation2
 ALPHA BEFORE:    8.0000000000000019E-003
  ** Opt : line minimisation
left   ...       0.00000000    -107.45424868
centre ...       0.00100000    -108.89908767
right  ...       0.00200000    -110.33615974

left   ...       0.00000000    -107.45424868
centre ...       0.00100000    -108.89908767
right  ...       0.00200000    -110.33615974
new    ...       0.00300000    -111.76548652

__s__    ...       0.00100000

left   ...       0.00100000    -108.89908767
centre ...       0.00200000    -110.33615974
right  ...       0.00300000    -111.76548652
new    ...       0.00400000    -113.18714712

__s__    ...       0.00100000

left   ...       0.00200000    -110.33615974
centre ...       0.00300000    -111.76548652
right  ...       0.00400000    -113.18714712
new    ...       0.00500000    -114.60114363

__s__    ...       0.00100000

left   ...       0.00300000    -111.76548652
centre ...       0.00400000    -113.18714712
right  ...       0.00500000    -114.60114363
new    ...       0.00600000    -116.00772980

__s__    ...       0.00100000

left   ...       0.00400000    -113.18714712
centre ...       0.00500000    -114.60114363
right  ...       0.00600000    -116.00772980
new    ...       0.00700000    -117.40657704

__s__    ...       0.00100000

left   ...       0.00500000    -114.60114363
centre ...       0.00600000    -116.00772980
right  ...       0.00700000    -117.40657704
new    ...       0.00800000    -118.79789976

__s__    ...       0.00100000

 ALPHA AFTER:    8.0000000000000019E-003
  Cycle:      8 Energy:      -118.797900  Gnorm:     24.565210  CPU:    0.072
 Line minimisation2
 ALPHA BEFORE:    8.0000000000000019E-003
  ** Opt : line minimisation
left   ...       0.00000000    -118.79789976
centre ...       0.00100000    -120.12907668
right  ...       0.00200000    -121.45364463

left   ...       0.00000000    -118.79789976
centre ...       0.00100000    -120.12907668
right  ...       0.00200000    -121.45364463
new    ...       0.00300000    -122.77163379

__s__    ...       0.00100000

left   ...       0.00100000    -120.12907668
centre ...       0.00200000    -121.45364463
right  ...       0.00300000    -122.77163379
new    ...       0.00400000    -124.08307418

__s__    ...       0.00100000

left   ...       0.00200000    -121.45364463
centre ...       0.00300000    -122.77163379
right  ...       0.00400000    -124.08307418
new    ...       0.00500000    -125.38799563

__s__    ...       0.00100000

left   ...       0.00300000    -122.77163379
centre ...       0.00400000    -124.08307418
right  ...       0.00500000    -125.38799563
new    ...       0.00600000    -126.68642777

__s__    ...       0.00100000

left   ...       0.00400000    -124.08307418
centre ...       0.00500000    -125.38799563
right  ...       0.00600000    -126.68642777
new    ...       0.00700000    -127.97838082

__s__    ...       0.00100000

left   ...       0.00500000    -125.38799563
centre ...       0.00600000    -126.68642777
right  ...       0.00700000    -127.97838082
new    ...       0.00800000    -129.26409780

__s__    ...       0.00100000

 ALPHA AFTER:    8.0000000000000019E-003
  Cycle:      9 Energy:      -129.264098  Gnorm:     23.615907  CPU:    0.078
 Line minimisation2
 ALPHA BEFORE:    8.0000000000000019E-003
  ** Opt : line minimisation
left   ...       0.00000000    -129.26409780
centre ...       0.00100000    -130.54492760
right  ...       0.00200000    -131.81942057

left   ...       0.00000000    -129.26409780
centre ...       0.00100000    -130.54492760
right  ...       0.00200000    -131.81942057
new    ...       0.00300000    -133.08795189

__s__    ...       0.00100000

left   ...       0.00100000    -130.54492760
centre ...       0.00200000    -131.81942057
right  ...       0.00300000    -133.08795189
new    ...       0.00400000    -134.35054626

__s__    ...       0.00100000

left   ...       0.00200000    -131.81942057
centre ...       0.00300000    -133.08795189
right  ...       0.00400000    -134.35054626
new    ...       0.00500000    -135.60687793

__s__    ...       0.00100000

left   ...       0.00300000    -133.08795189
centre ...       0.00400000    -134.35054626
right  ...       0.00500000    -135.60687793
new    ...       0.00600000    -136.85714616

__s__    ...       0.00100000

left   ...       0.00400000    -134.35054626
centre ...       0.00500000    -135.60687793
right  ...       0.00600000    -136.85714616
new    ...       0.00700000    -138.10120026

__s__    ...       0.00100000

left   ...       0.00500000    -135.60687793
centre ...       0.00600000    -136.85714616
right  ...       0.00700000    -138.10120026
new    ...       0.00800000    -139.33941398

__s__    ...       0.00100000

 ALPHA AFTER:    8.0000000000000019E-003
  Cycle:     10 Energy:      -139.339414  Gnorm:     22.730163  CPU:    0.084
 Line minimisation2
 ALPHA BEFORE:    8.0000000000000019E-003
  ** Opt : line minimisation
left   ...       0.00000000    -139.33941398
centre ...       0.00100000    -140.48226413
right  ...       0.00200000    -141.61999527

left   ...       0.00000000    -139.33941398
centre ...       0.00100000    -140.48226413
right  ...       0.00200000    -141.61999527
new    ...       0.00300000    -142.75262308

__s__    ...       0.00100000

left   ...       0.00100000    -140.48226413
centre ...       0.00200000    -141.61999527
right  ...       0.00300000    -142.75262308
new    ...       0.00400000    -143.88049366

__s__    ...       0.00100000

left   ...       0.00200000    -141.61999527
centre ...       0.00300000    -142.75262308
right  ...       0.00400000    -143.88049366
new    ...       0.00500000    -145.00348580

__s__    ...       0.00100000

left   ...       0.00300000    -142.75262308
centre ...       0.00400000    -143.88049366
right  ...       0.00500000    -145.00348580
new    ...       0.00600000    -146.12159549

__s__    ...       0.00100000

left   ...       0.00400000    -143.88049366
centre ...       0.00500000    -145.00348580
right  ...       0.00600000    -146.12159549
new    ...       0.00700000    -147.23483783

__s__    ...       0.00100000

left   ...       0.00500000    -145.00348580
centre ...       0.00600000    -146.12159549
right  ...       0.00700000    -147.23483783
new    ...       0.00800000    -148.34322771

__s__    ...       0.00100000

 ALPHA AFTER:    8.0000000000000019E-003
  Cycle:     11 Energy:      -148.343228  Gnorm:     21.959621  CPU:    0.090
 Line minimisation2
 ALPHA BEFORE:    8.0000000000000019E-003
  ** Opt : line minimisation
left   ...       0.00000000    -148.34322771
centre ...       0.00100000    -149.41526709
right  ...       0.00200000    -150.48289648

left   ...       0.00000000    -148.34322771
centre ...       0.00100000    -149.41526709
right  ...       0.00200000    -150.48289648
new    ...       0.00300000    -151.54595211

__s__    ...       0.00100000

left   ...       0.00100000    -149.41526709
centre ...       0.00200000    -150.48289648
right  ...       0.00300000    -151.54595211
new    ...       0.00400000    -152.60461981

__s__    ...       0.00100000

left   ...       0.00200000    -150.48289648
centre ...       0.00300000    -151.54595211
right  ...       0.00400000    -152.60461981
new    ...       0.00500000    -153.65891060

__s__    ...       0.00100000

left   ...       0.00300000    -151.54595211
centre ...       0.00400000    -152.60461981
right  ...       0.00500000    -153.65891060
new    ...       0.00600000    -154.70883534

__s__    ...       0.00100000

left   ...       0.00400000    -152.60461981
centre ...       0.00500000    -153.65891060
right  ...       0.00600000    -154.70883534
new    ...       0.00700000    -155.75440476

__s__    ...       0.00100000

left   ...       0.00500000    -153.65891060
centre ...       0.00600000    -154.70883534
right  ...       0.00700000    -155.75440476
new    ...       0.00800000    -156.79545451

__s__    ...       0.00100000

 ALPHA AFTER:    8.0000000000000019E-003
  Cycle:     12 Energy:      -156.795455  Gnorm:     21.249880  CPU:    0.096
 Line minimisation2
 ALPHA BEFORE:    8.0000000000000019E-003
  ** Opt : line minimisation
left   ...       0.00000000    -156.79545451
centre ...       0.00100000    -157.80059358
right  ...       0.00200000    -158.80180573

left   ...       0.00000000    -156.79545451
centre ...       0.00100000    -157.80059358
right  ...       0.00200000    -158.80180573
new    ...       0.00300000    -159.79906026

__s__    ...       0.00100000

left   ...       0.00100000    -157.80059358
centre ...       0.00200000    -158.80180573
right  ...       0.00300000    -159.79906026
new    ...       0.00400000    -160.79238401

__s__    ...       0.00100000

left   ...       0.00200000    -158.80180573
centre ...       0.00300000    -159.79906026
right  ...       0.00400000    -160.79238401
new    ...       0.00500000    -161.78176528

__s__    ...       0.00100000

left   ...       0.00300000    -159.79906026
centre ...       0.00400000    -160.79238401
right  ...       0.00500000    -161.78176528
new    ...       0.00600000    -162.76724998

__s__    ...       0.00100000

left   ...       0.00400000    -160.79238401
centre ...       0.00500000    -161.78176528
right  ...       0.00600000    -162.76724998
new    ...       0.00700000    -163.74882611

__s__    ...       0.00100000

left   ...       0.00500000    -161.78176528
centre ...       0.00600000    -162.76724998
right  ...       0.00700000    -163.74882611
new    ...       0.00800000    -164.72648167

__s__    ...       0.00100000

 ALPHA AFTER:    8.0000000000000019E-003
  Cycle:     13 Energy:      -164.726482  Gnorm:     20.592843  CPU:    0.102
 Line minimisation2
 ALPHA BEFORE:    8.0000000000000019E-003
  ** Opt : line minimisation
left   ...       0.00000000    -164.72648167
centre ...       0.00100000    -165.67172889
right  ...       0.00200000    -166.61341182

left   ...       0.00000000    -164.72648167
centre ...       0.00100000    -165.67172889
right  ...       0.00200000    -166.61341182
new    ...       0.00300000    -167.55153553

__s__    ...       0.00100000

left   ...       0.00100000    -165.67172889
centre ...       0.00200000    -166.61341182
right  ...       0.00300000    -167.55153553
new    ...       0.00400000    -168.48610498

__s__    ...       0.00100000

left   ...       0.00200000    -166.61341182
centre ...       0.00300000    -167.55153553
right  ...       0.00400000    -168.48610498
new    ...       0.00500000    -169.41712503

__s__    ...       0.00100000

left   ...       0.00300000    -167.55153553
centre ...       0.00400000    -168.48610498
right  ...       0.00500000    -169.41712503
new    ...       0.00600000    -170.34460046

__s__    ...       0.00100000

left   ...       0.00400000    -168.48610498
centre ...       0.00500000    -169.41712503
right  ...       0.00600000    -170.34460046
new    ...       0.00700000    -171.26836095

__s__    ...       0.00100000

left   ...       0.00500000    -169.41712503
centre ...       0.00600000    -170.34460046
right  ...       0.00700000    -171.26836095
new    ...       0.00800000    -172.18876122

__s__    ...       0.00100000

 ALPHA AFTER:    8.0000000000000019E-003
  Cycle:     14 Energy:      -172.188761  Gnorm:     19.979868  CPU:    0.109
 Line minimisation2
 ALPHA BEFORE:    8.0000000000000019E-003
  ** Opt : line minimisation
left   ...       0.00000000    -172.18876122
centre ...       0.00100000    -173.07958933
right  ...       0.00200000    -173.96717304

left   ...       0.00000000    -172.18876122
centre ...       0.00100000    -173.07958933
right  ...       0.00200000    -173.96717304
new    ...       0.00300000    -174.85151536

__s__    ...       0.00100000

left   ...       0.00100000    -173.07958933
centre ...       0.00200000    -173.96717304
right  ...       0.00300000    -174.85151536
new    ...       0.00400000    -175.73261919

__s__    ...       0.00100000

left   ...       0.00200000    -173.96717304
centre ...       0.00300000    -174.85151536
right  ...       0.00400000    -175.73261919
new    ...       0.00500000    -176.61048736

__s__    ...       0.00100000

left   ...       0.00300000    -174.85151536
centre ...       0.00400000    -175.73261919
right  ...       0.00500000    -176.61048736
new    ...       0.00600000    -177.48529766

__s__    ...       0.00100000

left   ...       0.00400000    -175.73261919
centre ...       0.00500000    -176.61048736
right  ...       0.00600000    -177.48529766
new    ...       0.00700000    -178.35670279

__s__    ...       0.00100000

left   ...       0.00500000    -176.61048736
centre ...       0.00600000    -177.48529766
right  ...       0.00700000    -178.35670279
new    ...       0.00800000    -179.22488025

__s__    ...       0.00100000

 ALPHA AFTER:    8.0000000000000019E-003
  Cycle:     15 Energy:      -179.224880  Gnorm:     19.404234  CPU:    0.115
 Line minimisation2
 ALPHA BEFORE:    8.0000000000000019E-003
  ** Opt : line minimisation
left   ...       0.00000000    -179.22488025
centre ...       0.00100000    -180.06592202
right  ...       0.00200000    -180.90399065

left   ...       0.00000000    -179.22488025
centre ...       0.00100000    -180.06592202
right  ...       0.00200000    -180.90399065
new    ...       0.00300000    -181.73908754

__s__    ...       0.00100000

left   ...       0.00100000    -180.06592202
centre ...       0.00200000    -180.90399065
right  ...       0.00300000    -181.73908754
new    ...       0.00400000    -182.57121402

__s__    ...       0.00100000

left   ...       0.00200000    -180.90399065
centre ...       0.00300000    -181.73908754
right  ...       0.00400000    -182.57121402
new    ...       0.00500000    -183.40054640

__s__    ...       0.00100000

left   ...       0.00300000    -181.73908754
centre ...       0.00400000    -182.57121402
right  ...       0.00500000    -183.40054640
new    ...       0.00600000    -184.22673597

__s__    ...       0.00100000

left   ...       0.00400000    -182.57121402
centre ...       0.00500000    -183.40054640
right  ...       0.00600000    -184.22673597
new    ...       0.00700000    -185.05013396

__s__    ...       0.00100000

left   ...       0.00500000    -183.40054640
centre ...       0.00600000    -184.22673597
right  ...       0.00700000    -185.05013396
new    ...       0.00800000    -185.87039128

__s__    ...       0.00100000

 ALPHA AFTER:    8.0000000000000019E-003
  Cycle:     16 Energy:      -185.870391  Gnorm:     18.860590  CPU:    0.121
 Line minimisation2
 ALPHA BEFORE:    8.0000000000000019E-003
  ** Opt : line minimisation
left   ...       0.00000000    -185.87039128
centre ...       0.00100000    -186.66560735
right  ...       0.00200000    -187.45808304

left   ...       0.00000000    -185.87039128
centre ...       0.00100000    -186.66560735
right  ...       0.00200000    -187.45808304
new    ...       0.00300000    -188.24781856

__s__    ...       0.00100000

left   ...       0.00100000    -186.66560735
centre ...       0.00200000    -187.45808304
right  ...       0.00300000    -188.24781856
new    ...       0.00400000    -189.03481402

__s__    ...       0.00100000

left   ...       0.00200000    -187.45808304
centre ...       0.00300000    -188.24781856
right  ...       0.00400000    -189.03481402
new    ...       0.00500000    -189.81906950

__s__    ...       0.00100000

left   ...       0.00300000    -188.24781856
centre ...       0.00400000    -189.03481402
right  ...       0.00500000    -189.81906950
new    ...       0.00600000    -190.60058502

__s__    ...       0.00100000

left   ...       0.00400000    -189.03481402
centre ...       0.00500000    -189.81906950
right  ...       0.00600000    -190.60058502
new    ...       0.00700000    -191.37936053

__s__    ...       0.00100000

left   ...       0.00500000    -189.81906950
centre ...       0.00600000    -190.60058502
right  ...       0.00700000    -191.37936053
new    ...       0.00800000    -192.15539594

__s__    ...       0.00100000

 ALPHA AFTER:    8.0000000000000019E-003
  Cycle:     17 Energy:      -192.155396  Gnorm:     18.344620  CPU:    0.128
 Line minimisation2
 ALPHA BEFORE:    8.0000000000000019E-003
  ** Opt : line minimisation
left   ...       0.00000000    -192.15539594
centre ...       0.00100000    -192.90820981
right  ...       0.00200000    -193.65867969

left   ...       0.00000000    -192.15539594
centre ...       0.00100000    -192.90820981
right  ...       0.00200000    -193.65867969
new    ...       0.00300000    -194.40641650

__s__    ...       0.00100000

left   ...       0.00100000    -192.90820981
centre ...       0.00200000    -193.65867969
right  ...       0.00300000    -194.40641650
new    ...       0.00400000    -195.15161351

__s__    ...       0.00100000

left   ...       0.00200000    -193.65867969
centre ...       0.00300000    -194.40641650
right  ...       0.00400000    -195.15161351
new    ...       0.00500000    -195.89426987

__s__    ...       0.00100000

left   ...       0.00300000    -194.40641650
centre ...       0.00400000    -195.15161351
right  ...       0.00500000    -195.89426987
new    ...       0.00600000    -196.63438472

__s__    ...       0.00100000

left   ...       0.00400000    -195.15161351
centre ...       0.00500000    -195.89426987
right  ...       0.00600000    -196.63438472
new    ...       0.00700000    -197.37197638

__s__    ...       0.00100000

left   ...       0.00500000    -195.89426987
centre ...       0.00600000    -196.63438472
right  ...       0.00700000    -197.37197638
new    ...       0.00800000    -198.10700542

__s__    ...       0.00100000

 ALPHA AFTER:    8.0000000000000019E-003
  Cycle:     18 Energy:      -198.107005  Gnorm:     17.852892  CPU:    0.134
 Line minimisation2
 ALPHA BEFORE:    8.0000000000000019E-003
  ** Opt : line minimisation
left   ...       0.00000000    -198.10700542
centre ...       0.00100000    -198.82041562
right  ...       0.00200000    -199.53146491

left   ...       0.00000000    -198.10700542
centre ...       0.00100000    -198.82041562
right  ...       0.00200000    -199.53146491
new    ...       0.00300000    -200.24015186

__s__    ...       0.00100000

left   ...       0.00100000    -198.82041562
centre ...       0.00200000    -199.53146491
right  ...       0.00300000    -200.24015186
new    ...       0.00400000    -200.94647501

__s__    ...       0.00100000

left   ...       0.00200000    -199.53146491
centre ...       0.00300000    -200.24015186
right  ...       0.00400000    -200.94647501
new    ...       0.00500000    -201.65043285

__s__    ...       0.00100000

left   ...       0.00300000    -200.24015186
centre ...       0.00400000    -200.94647501
right  ...       0.00500000    -201.65043285
new    ...       0.00600000    -202.35202384

__s__    ...       0.00100000

left   ...       0.00400000    -200.94647501
centre ...       0.00500000    -201.65043285
right  ...       0.00600000    -202.35202384
new    ...       0.00700000    -203.05124640

__s__    ...       0.00100000

left   ...       0.00500000    -201.65043285
centre ...       0.00600000    -202.35202384
right  ...       0.00700000    -203.05124640
new    ...       0.00800000    -203.74809892

__s__    ...       0.00100000

 ALPHA AFTER:    8.0000000000000019E-003
  Cycle:     19 Energy:      -203.748099  Gnorm:     17.382616  CPU:    0.141
 Line minimisation2
 ALPHA BEFORE:    8.0000000000000019E-003
  ** Opt : line minimisation
left   ...       0.00000000    -203.74809892
centre ...       0.00100000    -204.44243864
right  ...       0.00200000    -205.13445657

left   ...       0.00000000    -203.74809892
centre ...       0.00100000    -204.44243864
right  ...       0.00200000    -205.13445657
new    ...       0.00300000    -205.82415064

__s__    ...       0.00100000

left   ...       0.00100000    -204.44243864
centre ...       0.00200000    -205.13445657
right  ...       0.00300000    -205.82415064
new    ...       0.00400000    -206.51151874

__s__    ...       0.00100000

left   ...       0.00200000    -205.13445657
centre ...       0.00300000    -205.82415064
right  ...       0.00400000    -206.51151874
new    ...       0.00500000    -207.19638380

__s__    ...       0.00100000

left   ...       0.00300000    -205.82415064
centre ...       0.00400000    -206.51151874
right  ...       0.00500000    -207.19638380
new    ...       0.00600000    -207.87926862

__s__    ...       0.00100000

left   ...       0.00400000    -206.51151874
centre ...       0.00500000    -207.19638380
right  ...       0.00600000    -207.87926862
new    ...       0.00700000    -208.55966558

__s__    ...       0.00100000

left   ...       0.00500000    -207.19638380
centre ...       0.00600000    -207.87926862
right  ...       0.00700000    -208.55966558
new    ...       0.00800000    -209.23770856

__s__    ...       0.00100000

 ALPHA AFTER:    8.0000000000000019E-003
  Cycle:     20 Energy:      -209.237709  Gnorm:     16.919670  CPU:    0.147
 Line minimisation2
 ALPHA BEFORE:    8.0000000000000019E-003
  ** Opt : line minimisation
left   ...       0.00000000    -209.23770856
centre ...       0.00100000    -209.87820558
right  ...       0.00200000    -210.51664956

left   ...       0.00000000    -209.23770856
centre ...       0.00100000    -209.87820558
right  ...       0.00200000    -210.51664956
new    ...       0.00300000    -211.15303820

__s__    ...       0.00100000

left   ...       0.00100000    -209.87820558
centre ...       0.00200000    -210.51664956
right  ...       0.00300000    -211.15303820
new    ...       0.00400000    -211.78736920

__s__    ...       0.00100000

left   ...       0.00200000    -210.51664956
centre ...       0.00300000    -211.15303820
right  ...       0.00400000    -211.78736920
new    ...       0.00500000    -212.41981522

__s__    ...       0.00100000

left   ...       0.00300000    -211.15303820
centre ...       0.00400000    -211.78736920
right  ...       0.00500000    -212.41981522
new    ...       0.00600000    -213.05002398

__s__    ...       0.00100000

left   ...       0.00400000    -211.78736920
centre ...       0.00500000    -212.41981522
right  ...       0.00600000    -213.05002398
new    ...       0.00700000    -213.67818725

__s__    ...       0.00100000

left   ...       0.00500000    -212.41981522
centre ...       0.00600000    -213.05002398
right  ...       0.00700000    -213.67818725
new    ...       0.00800000    -214.30426421

__s__    ...       0.00100000

 ALPHA AFTER:    8.0000000000000019E-003
  Cycle:     21 Energy:      -214.304264  Gnorm:     16.487130  CPU:    0.153
 Line minimisation2
 ALPHA BEFORE:    8.0000000000000019E-003
  ** Opt : line minimisation
left   ...       0.00000000    -214.30426421
centre ...       0.00100000    -214.91354624
right  ...       0.00200000    -215.52089631

left   ...       0.00000000    -214.30426421
centre ...       0.00100000    -214.91354624
right  ...       0.00200000    -215.52089631
new    ...       0.00300000    -216.12631187

__s__    ...       0.00100000

left   ...       0.00100000    -214.91354624
centre ...       0.00200000    -215.52089631
right  ...       0.00300000    -216.12631187
new    ...       0.00400000    -216.72979037

__s__    ...       0.00100000

left   ...       0.00200000    -215.52089631
centre ...       0.00300000    -216.12631187
right  ...       0.00400000    -216.72979037
new    ...       0.00500000    -217.33132925

__s__    ...       0.00100000

left   ...       0.00300000    -216.12631187
centre ...       0.00400000    -216.72979037
right  ...       0.00500000    -217.33132925
new    ...       0.00600000    -217.93092591

__s__    ...       0.00100000

left   ...       0.00400000    -216.72979037
centre ...       0.00500000    -217.33132925
right  ...       0.00600000    -217.93092591
new    ...       0.00700000    -218.52857775

__s__    ...       0.00100000

left   ...       0.00500000    -217.33132925
centre ...       0.00600000    -217.93092591
right  ...       0.00700000    -218.52857775
new    ...       0.00800000    -219.12428213

__s__    ...       0.00100000

 ALPHA AFTER:    8.0000000000000019E-003
  Cycle:     22 Energy:      -219.124282  Gnorm:     16.069907  CPU:    0.160
 Line minimisation2
 ALPHA BEFORE:    8.0000000000000019E-003
  ** Opt : line minimisation
left   ...       0.00000000    -219.12428213
centre ...       0.00100000    -219.70329396
right  ...       0.00200000    -220.28047127

left   ...       0.00000000    -219.12428213
centre ...       0.00100000    -219.70329396
right  ...       0.00200000    -220.28047127
new    ...       0.00300000    -220.85583057

__s__    ...       0.00100000

left   ...       0.00100000    -219.70329396
centre ...       0.00200000    -220.28047127
right  ...       0.00300000    -220.85583057
new    ...       0.00400000    -221.42954424

__s__    ...       0.00100000

left   ...       0.00200000    -220.28047127
centre ...       0.00300000    -220.85583057
right  ...       0.00400000    -221.42954424
new    ...       0.00500000    -222.00125955

__s__    ...       0.00100000

left   ...       0.00300000    -220.85583057
centre ...       0.00400000    -221.42954424
right  ...       0.00500000    -222.00125955
new    ...       0.00600000    -222.57114875

__s__    ...       0.00100000

left   ...       0.00400000    -221.42954424
centre ...       0.00500000    -222.00125955
right  ...       0.00600000    -222.57114875
new    ...       0.00700000    -223.13920911

__s__    ...       0.00100000

left   ...       0.00500000    -222.00125955
centre ...       0.00600000    -222.57114875
right  ...       0.00700000    -223.13920911
new    ...       0.00800000    -223.70543791

__s__    ...       0.00100000

 ALPHA AFTER:    8.0000000000000019E-003
  Cycle:     23 Energy:      -223.705438  Gnorm:     15.667589  CPU:    0.166
 Line minimisation2
 ALPHA BEFORE:    8.0000000000000019E-003
  ** Opt : line minimisation
left   ...       0.00000000    -223.70543791
centre ...       0.00100000    -224.25598234
right  ...       0.00200000    -224.80481860

left   ...       0.00000000    -223.70543791
centre ...       0.00100000    -224.25598234
right  ...       0.00200000    -224.80481860
new    ...       0.00300000    -225.35211911

__s__    ...       0.00100000

left   ...       0.00100000    -224.25598234
centre ...       0.00200000    -224.80481860
right  ...       0.00300000    -225.35211911
new    ...       0.00400000    -225.89753109

__s__    ...       0.00100000

left   ...       0.00200000    -224.80481860
centre ...       0.00300000    -225.35211911
right  ...       0.00400000    -225.89753109
new    ...       0.00500000    -226.44122665

__s__    ...       0.00100000

left   ...       0.00300000    -225.35211911
centre ...       0.00400000    -225.89753109
right  ...       0.00500000    -226.44122665
new    ...       0.00600000    -226.98320303

__s__    ...       0.00100000

left   ...       0.00400000    -225.89753109
centre ...       0.00500000    -226.44122665
right  ...       0.00600000    -226.98320303
new    ...       0.00700000    -227.52345744

__s__    ...       0.00100000

left   ...       0.00500000    -226.44122665
centre ...       0.00600000    -226.98320303
right  ...       0.00700000    -227.52345744
new    ...       0.00800000    -228.06198712

__s__    ...       0.00100000

 ALPHA AFTER:    8.0000000000000019E-003
  Cycle:     24 Energy:      -228.061987  Gnorm:     15.279273  CPU:    0.173
 Line minimisation2
 ALPHA BEFORE:    8.0000000000000019E-003
  ** Opt : line minimisation
left   ...       0.00000000    -228.06198712
centre ...       0.00100000    -228.58574147
right  ...       0.00200000    -229.10790634

left   ...       0.00000000    -228.06198712
centre ...       0.00100000    -228.58574147
right  ...       0.00200000    -229.10790634
new    ...       0.00300000    -229.62844056

__s__    ...       0.00100000

left   ...       0.00100000    -228.58574147
centre ...       0.00200000    -229.10790634
right  ...       0.00300000    -229.62844056
new    ...       0.00400000    -230.14736057

__s__    ...       0.00100000

left   ...       0.00200000    -229.10790634
centre ...       0.00300000    -229.62844056
right  ...       0.00400000    -230.14736057
new    ...       0.00500000    -230.66448872

__s__    ...       0.00100000

left   ...       0.00300000    -229.62844056
centre ...       0.00400000    -230.14736057
right  ...       0.00500000    -230.66448872
new    ...       0.00600000    -231.18036641

__s__    ...       0.00100000

left   ...       0.00400000    -230.14736057
centre ...       0.00500000    -230.66448872
right  ...       0.00600000    -231.18036641
new    ...       0.00700000    -231.69442750

__s__    ...       0.00100000

left   ...       0.00500000    -230.66448872
centre ...       0.00600000    -231.18036641
right  ...       0.00700000    -231.69442750
new    ...       0.00800000    -232.20703839

__s__    ...       0.00100000

 ALPHA AFTER:    8.0000000000000019E-003
  Cycle:     25 Energy:      -232.207038  Gnorm:     14.904297  CPU:    0.179
 Line minimisation2
 ALPHA BEFORE:    8.0000000000000019E-003
  ** Opt : line minimisation
left   ...       0.00000000    -232.20703839
centre ...       0.00100000    -232.70555318
right  ...       0.00200000    -233.20255220

left   ...       0.00000000    -232.20703839
centre ...       0.00100000    -232.70555318
right  ...       0.00200000    -233.20255220
new    ...       0.00300000    -233.69820813

__s__    ...       0.00100000

left   ...       0.00100000    -232.70555318
centre ...       0.00200000    -233.20255220
right  ...       0.00300000    -233.69820813
new    ...       0.00400000    -234.19216794

__s__    ...       0.00100000

left   ...       0.00200000    -233.20255220
centre ...       0.00300000    -233.69820813
right  ...       0.00400000    -234.19216794
new    ...       0.00500000    -234.68460388

__s__    ...       0.00100000

 ALPHA AFTER:    5.0000000000000010E-003
  Cycle:     26 Energy:      -234.684604  Gnorm:     14.678036  CPU:    0.184
 Line minimisation2
 ALPHA BEFORE:    5.0000000000000010E-003
  ** Opt : line minimisation
left   ...       0.00000000    -234.68460388
centre ...       0.00100000    -235.17258910
right  ...       0.00200000    -235.65908608

left   ...       0.00000000    -234.68460388
centre ...       0.00100000    -235.17258910
right  ...       0.00200000    -235.65908608
new    ...       0.00300000    -236.14409207

__s__    ...       0.00100000

left   ...       0.00100000    -235.17258910
centre ...       0.00200000    -235.65908608
right  ...       0.00300000    -236.14409207
new    ...       0.00400000    -236.62760437

__s__    ...       0.00100000

left   ...       0.00200000    -235.65908608
centre ...       0.00300000    -236.14409207
right  ...       0.00400000    -236.62760437
new    ...       0.00500000    -237.10962023

__s__    ...       0.00100000

 ALPHA AFTER:    5.0000000000000010E-003
  Cycle:     27 Energy:      -237.109620  Gnorm:     14.454555  CPU:    0.188
 Line minimisation2
 ALPHA BEFORE:    5.0000000000000010E-003
  ** Opt : line minimisation
left   ...       0.00000000    -237.10962023
centre ...       0.00100000    -237.58279453
right  ...       0.00200000    -238.05453590

left   ...       0.00000000    -237.10962023
centre ...       0.00100000    -237.58279453
right  ...       0.00200000    -238.05453590
new    ...       0.00300000    -238.52484167

__s__    ...       0.00100000

left   ...       0.00100000    -237.58279453
centre ...       0.00200000    -238.05453590
right  ...       0.00300000    -238.52484167
new    ...       0.00400000    -238.99369001

__s__    ...       0.00100000

left   ...       0.00200000    -238.05453590
centre ...       0.00300000    -238.52484167
right  ...       0.00400000    -238.99369001
new    ...       0.00500000    -239.46111666

__s__    ...       0.00100000

 ALPHA AFTER:    5.0000000000000010E-003
  Cycle:     28 Energy:      -239.461117  Gnorm:     14.236018  CPU:    0.192
 Line minimisation2
 ALPHA BEFORE:    5.0000000000000010E-003
  ** Opt : line minimisation
left   ...       0.00000000    -239.46111666
centre ...       0.00100000    -239.92016314
right  ...       0.00200000    -240.37782922

left   ...       0.00000000    -239.46111666
centre ...       0.00100000    -239.92016314
right  ...       0.00200000    -240.37782922
new    ...       0.00300000    -240.83411231

__s__    ...       0.00100000

left   ...       0.00100000    -239.92016314
centre ...       0.00200000    -240.37782922
right  ...       0.00300000    -240.83411231
new    ...       0.00400000    -241.28920432

__s__    ...       0.00100000

left   ...       0.00200000    -240.37782922
centre ...       0.00300000    -240.83411231
right  ...       0.00400000    -241.28920432
new    ...       0.00500000    -241.74271407

__s__    ...       0.00100000

 ALPHA AFTER:    5.0000000000000010E-003
  Cycle:     29 Energy:      -241.742714  Gnorm:     14.022302  CPU:    0.197
 Line minimisation2
 ALPHA BEFORE:    5.0000000000000010E-003
  ** Opt : line minimisation
left   ...       0.00000000    -241.74271407
centre ...       0.00100000    -242.19479696
right  ...       0.00200000    -242.64550987

left   ...       0.00000000    -241.74271407
centre ...       0.00100000    -242.19479696
right  ...       0.00200000    -242.64550987
new    ...       0.00300000    -243.09485015

__s__    ...       0.00100000

left   ...       0.00100000    -242.19479696
centre ...       0.00200000    -242.64550987
right  ...       0.00300000    -243.09485015
new    ...       0.00400000    -243.54281518

__s__    ...       0.00100000

left   ...       0.00200000    -242.64550987
centre ...       0.00300000    -243.09485015
right  ...       0.00400000    -243.54281518
new    ...       0.00500000    -243.98940235

__s__    ...       0.00100000

 ALPHA AFTER:    5.0000000000000010E-003
  Cycle:     30 Energy:      -243.989402  Gnorm:     13.810187  CPU:    0.201
 Line minimisation2
 ALPHA BEFORE:    5.0000000000000010E-003
  ** Opt : line minimisation
left   ...       0.00000000    -243.98940235
centre ...       0.00100000    -244.42133982
right  ...       0.00200000    -244.85199883

left   ...       0.00000000    -243.98940235
centre ...       0.00100000    -244.42133982
right  ...       0.00200000    -244.85199883
new    ...       0.00300000    -245.28137697

__s__    ...       0.00100000

left   ...       0.00100000    -244.42133982
centre ...       0.00200000    -244.85199883
right  ...       0.00300000    -245.28137697
new    ...       0.00400000    -245.70947181

__s__    ...       0.00100000

left   ...       0.00200000    -244.85199883
centre ...       0.00300000    -245.28137697
right  ...       0.00400000    -245.70947181
new    ...       0.00500000    -246.13628094

__s__    ...       0.00100000

 ALPHA AFTER:    5.0000000000000010E-003
  Cycle:     31 Energy:      -246.136281  Gnorm:     13.606114  CPU:    0.206
 Line minimisation2
 ALPHA BEFORE:    5.0000000000000010E-003
  ** Opt : line minimisation
left   ...       0.00000000    -246.13628094
centre ...       0.00100000    -246.55581140
right  ...       0.00200000    -246.97410984

left   ...       0.00000000    -246.13628094
centre ...       0.00100000    -246.55581140
right  ...       0.00200000    -246.97410984
new    ...       0.00300000    -247.39117394

__s__    ...       0.00100000

left   ...       0.00100000    -246.55581140
centre ...       0.00200000    -246.97410984
right  ...       0.00300000    -247.39117394
new    ...       0.00400000    -247.80703980

__s__    ...       0.00100000

left   ...       0.00200000    -246.97410984
centre ...       0.00300000    -247.39117394
right  ...       0.00400000    -247.80703980
new    ...       0.00500000    -248.22160902

__s__    ...       0.00100000

 ALPHA AFTER:    5.0000000000000010E-003
  Cycle:     32 Energy:      -248.221609  Gnorm:     13.406639  CPU:    0.210
 Line minimisation2
 ALPHA BEFORE:    5.0000000000000010E-003
  ** Opt : line minimisation
left   ...       0.00000000    -248.22160902
centre ...       0.00100000    -248.62899465
right  ...       0.00200000    -249.03517534

left   ...       0.00000000    -248.22160902
centre ...       0.00100000    -248.62899465
right  ...       0.00200000    -249.03517534
new    ...       0.00300000    -249.44018728

__s__    ...       0.00100000

left   ...       0.00100000    -248.62899465
centre ...       0.00200000    -249.03517534
right  ...       0.00300000    -249.44018728
new    ...       0.00400000    -249.84400901

__s__    ...       0.00100000

left   ...       0.00200000    -249.03517534
centre ...       0.00300000    -249.44018728
right  ...       0.00400000    -249.84400901
new    ...       0.00500000    -250.24663829

__s__    ...       0.00100000

 ALPHA AFTER:    5.0000000000000010E-003
  Cycle:     33 Energy:      -250.246638  Gnorm:     13.211840  CPU:    0.214
 Line minimisation2
 ALPHA BEFORE:    5.0000000000000010E-003
  ** Opt : line minimisation
left   ...       0.00000000    -250.24663829
centre ...       0.00100000    -250.64232550
right  ...       0.00200000    -251.03689108

left   ...       0.00000000    -250.24663829
centre ...       0.00100000    -250.64232550
right  ...       0.00200000    -251.03689108
new    ...       0.00300000    -251.43031366

__s__    ...       0.00100000

left   ...       0.00100000    -250.64232550
centre ...       0.00200000    -251.03689108
right  ...       0.00300000    -251.43031366
new    ...       0.00400000    -251.82259111

__s__    ...       0.00100000

left   ...       0.00200000    -251.03689108
centre ...       0.00300000    -251.43031366
right  ...       0.00400000    -251.82259111
new    ...       0.00500000    -252.21372128

__s__    ...       0.00100000

 ALPHA AFTER:    5.0000000000000010E-003
  Cycle:     34 Energy:      -252.213721  Gnorm:     13.021695  CPU:    0.218
 Line minimisation2
 ALPHA BEFORE:    5.0000000000000010E-003
  ** Opt : line minimisation
left   ...       0.00000000    -252.21372128
centre ...       0.00100000    -252.59819468
right  ...       0.00200000    -252.98157082

left   ...       0.00000000    -252.21372128
centre ...       0.00100000    -252.59819468
right  ...       0.00200000    -252.98157082
new    ...       0.00300000    -253.36384765

__s__    ...       0.00100000

left   ...       0.00100000    -252.59819468
centre ...       0.00200000    -252.98157082
right  ...       0.00300000    -253.36384765
new    ...       0.00400000    -253.74502312

__s__    ...       0.00100000

left   ...       0.00200000    -252.98157082
centre ...       0.00300000    -253.36384765
right  ...       0.00400000    -253.74502312
new    ...       0.00500000    -254.12509520

__s__    ...       0.00100000

 ALPHA AFTER:    5.0000000000000010E-003
  Cycle:     35 Energy:      -254.125095  Gnorm:     12.836192  CPU:    0.223
 Line minimisation2
 ALPHA BEFORE:    5.0000000000000010E-003
  ** Opt : line minimisation
left   ...       0.00000000    -254.12509520
centre ...       0.00100000    -254.49876918
right  ...       0.00200000    -254.87138824

left   ...       0.00000000    -254.12509520
centre ...       0.00100000    -254.49876918
right  ...       0.00200000    -254.87138824
new    ...       0.00300000    -255.24295042

__s__    ...       0.00100000

left   ...       0.00100000    -254.49876918
centre ...       0.00200000    -254.87138824
right  ...       0.00300000    -255.24295042
new    ...       0.00400000    -255.61345379

__s__    ...       0.00100000

left   ...       0.00200000    -254.87138824
centre ...       0.00300000    -255.24295042
right  ...       0.00400000    -255.61345379
new    ...       0.00500000    -255.98307161

__s__    ...       0.00100000

 ALPHA AFTER:    5.0000000000000010E-003
  Cycle:     36 Energy:      -255.983072  Gnorm:     12.655326  CPU:    0.227
 Line minimisation2
 ALPHA BEFORE:    5.0000000000000010E-003
  ** Opt : line minimisation
left   ...       0.00000000    -255.98307161
centre ...       0.00100000    -256.34636823
right  ...       0.00200000    -256.70865106

left   ...       0.00000000    -255.98307161
centre ...       0.00100000    -256.34636823
right  ...       0.00200000    -256.70865106
new    ...       0.00300000    -257.06991824

__s__    ...       0.00100000

left   ...       0.00100000    -256.34636823
centre ...       0.00200000    -256.70865106
right  ...       0.00300000    -257.06991824
new    ...       0.00400000    -257.43016793

__s__    ...       0.00100000

left   ...       0.00200000    -256.70865106
centre ...       0.00300000    -257.06991824
right  ...       0.00400000    -257.43016793
new    ...       0.00500000    -257.78939828

__s__    ...       0.00100000

 ALPHA AFTER:    5.0000000000000010E-003
  Cycle:     37 Energy:      -257.789398  Gnorm:     12.479072  CPU:    0.231
 Line minimisation2
 ALPHA BEFORE:    5.0000000000000010E-003
  ** Opt : line minimisation
left   ...       0.00000000    -257.78939828
centre ...       0.00100000    -258.14272597
right  ...       0.00200000    -258.49507983

left   ...       0.00000000    -257.78939828
centre ...       0.00100000    -258.14272597
right  ...       0.00200000    -258.49507983
new    ...       0.00300000    -258.84645811

__s__    ...       0.00100000

left   ...       0.00100000    -258.14272597
centre ...       0.00200000    -258.49507983
right  ...       0.00300000    -258.84645811
new    ...       0.00400000    -259.19685905

__s__    ...       0.00100000

left   ...       0.00200000    -258.49507983
centre ...       0.00300000    -258.84645811
right  ...       0.00400000    -259.19685905
new    ...       0.00500000    -259.54628091

__s__    ...       0.00100000

 ALPHA AFTER:    5.0000000000000010E-003
  Cycle:     38 Energy:      -259.546281  Gnorm:     12.307426  CPU:    0.235
 Line minimisation2
 ALPHA BEFORE:    5.0000000000000010E-003
  ** Opt : line minimisation
left   ...       0.00000000    -259.54628091
centre ...       0.00100000    -259.89003763
right  ...       0.00200000    -260.23284013

left   ...       0.00000000    -259.54628091
centre ...       0.00100000    -259.89003763
right  ...       0.00200000    -260.23284013
new    ...       0.00300000    -260.57472518

__s__    ...       0.00100000

left   ...       0.00100000    -259.89003763
centre ...       0.00200000    -260.23284013
right  ...       0.00300000    -260.57472518
new    ...       0.00400000    -260.91567190

__s__    ...       0.00100000

left   ...       0.00200000    -260.23284013
centre ...       0.00300000    -260.57472518
right  ...       0.00400000    -260.91567190
new    ...       0.00500000    -261.25567864

__s__    ...       0.00100000

 ALPHA AFTER:    5.0000000000000010E-003
  Cycle:     39 Energy:      -261.255679  Gnorm:     12.140376  CPU:    0.241
 Line minimisation2
 ALPHA BEFORE:    5.0000000000000010E-003
  ** Opt : line minimisation
left   ...       0.00000000    -261.25567864
centre ...       0.00100000    -261.59475807
right  ...       0.00200000    -261.93291551

left   ...       0.00000000    -261.25567864
centre ...       0.00100000    -261.59475807
right  ...       0.00200000    -261.93291551
new    ...       0.00300000    -262.27014932

__s__    ...       0.00100000

left   ...       0.00100000    -261.59475807
centre ...       0.00200000    -261.93291551
right  ...       0.00300000    -262.27014932
new    ...       0.00400000    -262.60645785

__s__    ...       0.00100000

left   ...       0.00200000    -261.93291551
centre ...       0.00300000    -262.27014932
right  ...       0.00400000    -262.60645785
new    ...       0.00500000    -262.94183950

__s__    ...       0.00100000

 ALPHA AFTER:    5.0000000000000010E-003
  Cycle:     40 Energy:      -262.941839  Gnorm:     11.975694  CPU:    0.245
 Line minimisation2
 ALPHA BEFORE:    5.0000000000000010E-003
  ** Opt : line minimisation
left   ...       0.00000000    -262.94183950
centre ...       0.00100000    -263.26736403
right  ...       0.00200000    -263.59202899

left   ...       0.00000000    -262.94183950
centre ...       0.00100000    -263.26736403
right  ...       0.00200000    -263.59202899
new    ...       0.00300000    -263.91583287

__s__    ...       0.00100000

left   ...       0.00100000    -263.26736403
centre ...       0.00200000    -263.59202899
right  ...       0.00300000    -263.91583287
new    ...       0.00400000    -264.23877421

__s__    ...       0.00100000

left   ...       0.00200000    -263.59202899
centre ...       0.00300000    -263.91583287
right  ...       0.00400000    -264.23877421
new    ...       0.00500000    -264.56085153

__s__    ...       0.00100000

 ALPHA AFTER:    5.0000000000000010E-003
  Cycle:     41 Energy:      -264.560852  Gnorm:     11.817911  CPU:    0.250
 Line minimisation2
 ALPHA BEFORE:    5.0000000000000010E-003
  ** Opt : line minimisation
left   ...       0.00000000    -264.56085153
centre ...       0.00100000    -264.87805985
right  ...       0.00200000    -265.19444340

left   ...       0.00000000    -264.56085153
centre ...       0.00100000    -264.87805985
right  ...       0.00200000    -265.19444340
new    ...       0.00300000    -265.51001999

__s__    ...       0.00100000

left   ...       0.00100000    -264.87805985
centre ...       0.00200000    -265.19444340
right  ...       0.00300000    -265.51001999
new    ...       0.00400000    -265.82476905

__s__    ...       0.00100000

left   ...       0.00200000    -265.19444340
centre ...       0.00300000    -265.51001999
right  ...       0.00400000    -265.82476905
new    ...       0.00500000    -266.13866992

__s__    ...       0.00100000

 ALPHA AFTER:    5.0000000000000010E-003
  Cycle:     42 Energy:      -266.138670  Gnorm:     11.664609  CPU:    0.254
 Line minimisation2
 ALPHA BEFORE:    5.0000000000000010E-003
  ** Opt : line minimisation
left   ...       0.00000000    -266.13866992
centre ...       0.00100000    -266.44778669
right  ...       0.00200000    -266.75611312

left   ...       0.00000000    -266.13866992
centre ...       0.00100000    -266.44778669
right  ...       0.00200000    -266.75611312
new    ...       0.00300000    -267.06362865

__s__    ...       0.00100000

left   ...       0.00100000    -266.44778669
centre ...       0.00200000    -266.75611312
right  ...       0.00300000    -267.06362865
new    ...       0.00400000    -267.37037041

__s__    ...       0.00100000

left   ...       0.00200000    -266.75611312
centre ...       0.00300000    -267.06362865
right  ...       0.00400000    -267.37037041
new    ...       0.00500000    -267.67631787

__s__    ...       0.00100000

 ALPHA AFTER:    5.0000000000000010E-003
  Cycle:     43 Energy:      -267.676318  Gnorm:     11.515822  CPU:    0.258
 Line minimisation2
 ALPHA BEFORE:    5.0000000000000010E-003
  ** Opt : line minimisation
left   ...       0.00000000    -267.67631787
centre ...       0.00100000    -267.97768803
right  ...       0.00200000    -268.27847622

left   ...       0.00000000    -267.67631787
centre ...       0.00100000    -267.97768803
right  ...       0.00200000    -268.27847622
new    ...       0.00300000    -268.57833116

__s__    ...       0.00100000

left   ...       0.00100000    -267.97768803
centre ...       0.00200000    -268.27847622
right  ...       0.00300000    -268.57833116
new    ...       0.00400000    -268.87742659

__s__    ...       0.00100000

left   ...       0.00200000    -268.27847622
centre ...       0.00300000    -268.57833116
right  ...       0.00400000    -268.87742659
new    ...       0.00500000    -269.17576126

__s__    ...       0.00100000

 ALPHA AFTER:    5.0000000000000010E-003
  Cycle:     44 Energy:      -269.175761  Gnorm:     11.371522  CPU:    0.262
 Line minimisation2
 ALPHA BEFORE:    5.0000000000000010E-003
  ** Opt : line minimisation
left   ...       0.00000000    -269.17576126
centre ...       0.00100000    -269.46971581
right  ...       0.00200000    -269.76294561

left   ...       0.00000000    -269.17576126
centre ...       0.00100000    -269.46971581
right  ...       0.00200000    -269.76294561
new    ...       0.00300000    -270.05544947

__s__    ...       0.00100000

left   ...       0.00100000    -269.46971581
centre ...       0.00200000    -269.76294561
right  ...       0.00300000    -270.05544947
new    ...       0.00400000    -270.34722623

__s__    ...       0.00100000

left   ...       0.00200000    -269.76294561
centre ...       0.00300000    -270.05544947
right  ...       0.00400000    -270.34722623
new    ...       0.00500000    -270.63827472

__s__    ...       0.00100000

 ALPHA AFTER:    5.0000000000000010E-003
  Cycle:     45 Energy:      -270.638275  Gnorm:     11.231666  CPU:    0.266
 Line minimisation2
 ALPHA BEFORE:    5.0000000000000010E-003
  ** Opt : line minimisation
left   ...       0.00000000    -270.63827472
centre ...       0.00100000    -270.92513348
right  ...       0.00200000    -271.21127948

left   ...       0.00000000    -270.63827472
centre ...       0.00100000    -270.92513348
right  ...       0.00200000    -271.21127948
new    ...       0.00300000    -271.49710008

__s__    ...       0.00100000

left   ...       0.00100000    -270.92513348
centre ...       0.00200000    -271.21127948
right  ...       0.00300000    -271.49710008
new    ...       0.00400000    -271.78187514

__s__    ...       0.00100000

left   ...       0.00200000    -271.21127948
centre ...       0.00300000    -271.49710008
right  ...       0.00400000    -271.78187514
new    ...       0.00500000    -272.06595334

__s__    ...       0.00100000

 ALPHA AFTER:    5.0000000000000010E-003
  Cycle:     46 Energy:      -272.065953  Gnorm:     11.096224  CPU:    0.271
 Line minimisation2
 ALPHA BEFORE:    5.0000000000000010E-003
  ** Opt : line minimisation
left   ...       0.00000000    -272.06595334
centre ...       0.00100000    -272.34585154
right  ...       0.00200000    -272.62526141

left   ...       0.00000000    -272.06595334
centre ...       0.00100000    -272.34585154
right  ...       0.00200000    -272.62526141
new    ...       0.00300000    -272.90402608

__s__    ...       0.00100000

left   ...       0.00100000    -272.34585154
centre ...       0.00200000    -272.62526141
right  ...       0.00300000    -272.90402608
new    ...       0.00400000    -273.18210607

__s__    ...       0.00100000

left   ...       0.00200000    -272.62526141
centre ...       0.00300000    -272.90402608
right  ...       0.00400000    -273.18210607
new    ...       0.00500000    -273.45951954

__s__    ...       0.00100000

 ALPHA AFTER:    5.0000000000000010E-003
  Cycle:     47 Energy:      -273.459520  Gnorm:     10.965131  CPU:    0.276
 Line minimisation2
 ALPHA BEFORE:    5.0000000000000010E-003
  ** Opt : line minimisation
left   ...       0.00000000    -273.45951954
centre ...       0.00100000    -273.73310510
right  ...       0.00200000    -274.00605641

left   ...       0.00000000    -273.45951954
centre ...       0.00100000    -273.73310510
right  ...       0.00200000    -274.00605641
new    ...       0.00300000    -274.27835326

__s__    ...       0.00100000

left   ...       0.00100000    -273.73310510
centre ...       0.00200000    -274.00605641
right  ...       0.00300000    -274.27835326
new    ...       0.00400000    -274.55003310

__s__    ...       0.00100000

left   ...       0.00200000    -274.00605641
centre ...       0.00300000    -274.27835326
right  ...       0.00400000    -274.55003310
new    ...       0.00500000    -274.82107572

__s__    ...       0.00100000

 ALPHA AFTER:    5.0000000000000010E-003
  Cycle:     48 Energy:      -274.821076  Gnorm:     10.838336  CPU:    0.280
 Line minimisation2
 ALPHA BEFORE:    5.0000000000000010E-003
  ** Opt : line minimisation
left   ...       0.00000000    -274.82107572
centre ...       0.00100000    -275.08846169
right  ...       0.00200000    -275.35524150

left   ...       0.00000000    -274.82107572
centre ...       0.00100000    -275.08846169
right  ...       0.00200000    -275.35524150
new    ...       0.00300000    -275.62141421

__s__    ...       0.00100000

left   ...       0.00100000    -275.08846169
centre ...       0.00200000    -275.35524150
right  ...       0.00300000    -275.62141421
new    ...       0.00400000    -275.88697888

__s__    ...       0.00100000

left   ...       0.00200000    -275.35524150
centre ...       0.00300000    -275.62141421
right  ...       0.00400000    -275.88697888
new    ...       0.00500000    -276.15193458

__s__    ...       0.00100000

 ALPHA AFTER:    5.0000000000000010E-003
  Cycle:     49 Energy:      -276.151935  Gnorm:     10.715778  CPU:    0.285
 Line minimisation2
 ALPHA BEFORE:    5.0000000000000010E-003
  ** Opt : line minimisation
left   ...       0.00000000    -276.15193458
centre ...       0.00100000    -276.41632769
right  ...       0.00200000    -276.68012843

left   ...       0.00000000    -276.15193458
centre ...       0.00100000    -276.41632769
right  ...       0.00200000    -276.68012843
new    ...       0.00300000    -276.94333587

__s__    ...       0.00100000

left   ...       0.00100000    -276.41632769
centre ...       0.00200000    -276.68012843
right  ...       0.00300000    -276.94333587
new    ...       0.00400000    -277.20594909

__s__    ...       0.00100000

left   ...       0.00200000    -276.68012843
centre ...       0.00300000    -276.94333587
right  ...       0.00400000    -277.20594909
new    ...       0.00500000    -277.46796718

__s__    ...       0.00100000

 ALPHA AFTER:    5.0000000000000010E-003
  Cycle:     50 Energy:      -277.467967  Gnorm:     10.596048  CPU:    0.289
 Line minimisation2
 ALPHA BEFORE:    5.0000000000000010E-003
  ** Opt : line minimisation
left   ...       0.00000000    -277.46796718
centre ...       0.00100000    -277.72364876
right  ...       0.00200000    -277.97877786

left   ...       0.00000000    -277.46796718
centre ...       0.00100000    -277.72364876
right  ...       0.00200000    -277.97877786
new    ...       0.00300000    -278.23352870

__s__    ...       0.00100000

left   ...       0.00100000    -277.72364876
centre ...       0.00200000    -277.97877786
right  ...       0.00300000    -278.23352870
new    ...       0.00400000    -278.48737551

__s__    ...       0.00100000

left   ...       0.00200000    -277.97877786
centre ...       0.00300000    -278.23352870
right  ...       0.00400000    -278.48737551
new    ...       0.00500000    -278.74084234

__s__    ...       0.00100000

 ALPHA AFTER:    5.0000000000000010E-003
  Cycle:     51 Energy:      -278.740842  Gnorm:     10.481843  CPU:    0.293
 Line minimisation2
 ALPHA BEFORE:    5.0000000000000010E-003
  ** Opt : line minimisation
left   ...       0.00000000    -278.74084234
centre ...       0.00100000    -278.99119629
right  ...       0.00200000    -279.24102249

left   ...       0.00000000    -278.74084234
centre ...       0.00100000    -278.99119629
right  ...       0.00200000    -279.24102249
new    ...       0.00300000    -279.49032015

__s__    ...       0.00100000

left   ...       0.00100000    -278.99119629
centre ...       0.00200000    -279.24102249
right  ...       0.00300000    -279.49032015
new    ...       0.00400000    -279.73908844

__s__    ...       0.00100000

left   ...       0.00200000    -279.24102249
centre ...       0.00300000    -279.49032015
right  ...       0.00400000    -279.73908844
new    ...       0.00500000    -279.98732658

__s__    ...       0.00100000

 ALPHA AFTER:    5.0000000000000010E-003
  Cycle:     52 Energy:      -279.987327  Gnorm:     10.371615  CPU:    0.297
 Line minimisation2
 ALPHA BEFORE:    5.0000000000000010E-003
  ** Opt : line minimisation
left   ...       0.00000000    -279.98732658
centre ...       0.00100000    -280.23253036
right  ...       0.00200000    -280.47723042

left   ...       0.00000000    -279.98732658
centre ...       0.00100000    -280.23253036
right  ...       0.00200000    -280.47723042
new    ...       0.00300000    -280.72142601

__s__    ...       0.00100000

left   ...       0.00100000    -280.23253036
centre ...       0.00200000    -280.47723042
right  ...       0.00300000    -280.72142601
new    ...       0.00400000    -280.96529165

__s__    ...       0.00100000

left   ...       0.00200000    -280.47723042
centre ...       0.00300000    -280.72142601
right  ...       0.00400000    -280.96529165
new    ...       0.00500000    -281.20847632

__s__    ...       0.00100000

 ALPHA AFTER:    5.0000000000000010E-003
  Cycle:     53 Energy:      -281.208476  Gnorm:     10.265331  CPU:    0.302
 Line minimisation2
 ALPHA BEFORE:    5.0000000000000010E-003
  ** Opt : line minimisation
left   ...       0.00000000    -281.20847632
centre ...       0.00100000    -281.44876899
right  ...       0.00200000    -281.68858099

left   ...       0.00000000    -281.20847632
centre ...       0.00100000    -281.44876899
right  ...       0.00200000    -281.68858099
new    ...       0.00300000    -281.92791157

__s__    ...       0.00100000

left   ...       0.00100000    -281.44876899
centre ...       0.00200000    -281.68858099
right  ...       0.00300000    -281.92791157
new    ...       0.00400000    -282.16693501

__s__    ...       0.00100000

left   ...       0.00200000    -281.68858099
centre ...       0.00300000    -281.92791157
right  ...       0.00400000    -282.16693501
new    ...       0.00500000    -282.40530067

__s__    ...       0.00100000

 ALPHA AFTER:    5.0000000000000010E-003
  Cycle:     54 Energy:      -282.405301  Gnorm:     10.162875  CPU:    0.307
 Line minimisation2
 ALPHA BEFORE:    5.0000000000000010E-003
  ** Opt : line minimisation
left   ...       0.00000000    -282.40530067
centre ...       0.00100000    -282.64090749
right  ...       0.00200000    -282.87605571

left   ...       0.00000000    -282.40530067
centre ...       0.00100000    -282.64090749
right  ...       0.00200000    -282.87605571
new    ...       0.00300000    -283.11074461

__s__    ...       0.00100000

left   ...       0.00100000    -282.64090749
centre ...       0.00200000    -282.87605571
right  ...       0.00300000    -283.11074461
new    ...       0.00400000    -283.34497349

__s__    ...       0.00100000

left   ...       0.00200000    -282.87605571
centre ...       0.00300000    -283.11074461
right  ...       0.00400000    -283.34497349
new    ...       0.00500000    -283.57874163

__s__    ...       0.00100000

 ALPHA AFTER:    5.0000000000000010E-003
  Cycle:     55 Energy:      -283.578742  Gnorm:     10.064155  CPU:    0.311
 Line minimisation2
 ALPHA BEFORE:    5.0000000000000010E-003
  ** Opt : line minimisation
left   ...       0.00000000    -283.57874163
centre ...       0.00100000    -283.81005414
right  ...       0.00200000    -284.04075419

left   ...       0.00000000    -283.57874163
centre ...       0.00100000    -283.81005414
right  ...       0.00200000    -284.04075419
new    ...       0.00300000    -284.27101604

__s__    ...       0.00100000

left   ...       0.00100000    -283.81005414
centre ...       0.00200000    -284.04075419
right  ...       0.00300000    -284.27101604
new    ...       0.00400000    -284.50083902

__s__    ...       0.00100000

left   ...       0.00200000    -284.04075419
centre ...       0.00300000    -284.27101604
right  ...       0.00400000    -284.50083902
new    ...       0.00500000    -284.73022244

__s__    ...       0.00100000

 ALPHA AFTER:    5.0000000000000010E-003
  Cycle:     56 Energy:      -284.730222  Gnorm:      9.969080  CPU:    0.316
 Line minimisation2
 ALPHA BEFORE:    5.0000000000000010E-003
  ** Opt : line minimisation
left   ...       0.00000000    -284.73022244
centre ...       0.00125000    -285.01375134
right  ...       0.00250000    -285.29662788

left   ...       0.00000000    -284.73022244
centre ...       0.00125000    -285.01375134
right  ...       0.00250000    -285.29662788
new    ...       0.10250000    -305.71691190

__s__    ...       0.10000000

left   ...       0.00125000    -285.01375134
centre ...       0.00250000    -285.29662788
right  ...       0.10250000    -305.71691190
new    ...       0.20250000    -321.53269866

__s__    ...       0.10000000

left   ...       0.00250000    -285.29662788
centre ...       0.10250000    -305.71691190
right  ...       0.20250000    -321.53269866
new    ...       0.30250000    -332.59744292

__s__    ...       0.10000000

left   ...       0.10250000    -305.71691190
centre ...       0.20250000    -321.53269866
right  ...       0.30250000    -332.59744292
new    ...       0.40250000    -338.82347825

__s__    ...       0.10000000

left   ...       0.20250000    -321.53269866
centre ...       0.30250000    -332.59744292
right  ...       0.40250000    -338.82347825
new    ...       0.48117142    -340.17961106

__s__    ...       0.07867142

left   ...       0.30250000    -332.59744292
centre ...       0.40250000    -338.82347825
right  ...       0.48117142    -340.17961106
new    ...       0.47604007    -340.18944770

__s__    ...      -0.00513134

 ALPHA AFTER:   0.47604007265236947     
  Cycle:     57 Energy:      -340.189448  Gnorm:     10.622537  CPU:    0.322
 Perform trimming
 Line minimisation2
 ALPHA BEFORE:   0.47604007265236947     
  ** Opt : line minimisation
left   ...       0.00000000    -340.18944770
centre ...       0.10000000    -359.48401618
[...]
new    ...       0.30000000    -468.52973548

__s__    ...       0.10000000

left   ...       0.10000000    -468.51293550
centre ...       0.20000000    -468.52233464
right  ...       0.30000000    -468.52973548
new    ...       0.40000000    -468.53618457

__s__    ...       0.10000000

 ALPHA AFTER:   0.40000000000000002     
  Cycle:    149 Energy:      -468.536185  Gnorm:      0.173100  CPU:    0.916
 Line minimisation2
 ALPHA BEFORE:   0.37635149544008245     
  ** Opt : line minimisation
left   ...       0.00000000    -468.53618457
centre ...       0.09408787    -468.54753788
right  ...       0.18817575    -468.55621641

left   ...       0.00000000    -468.53618457
centre ...       0.09408787    -468.54753788
right  ...       0.18817575    -468.55621641
new    ...       0.28817575    -468.56236611

__s__    ...       0.10000000

left   ...       0.09408787    -468.54753788
centre ...       0.18817575    -468.55621641
right  ...       0.28817575    -468.56236611
new    ...       0.38817575    -468.56449597

__s__    ...       0.10000000

 ALPHA AFTER:   0.38817574772004126     
  Cycle:    150 Energy:      -468.564496  Gnorm:      0.169458  CPU:    0.920
 Line minimisation2
 ALPHA BEFORE:    1.0781385244112500     
  ** Opt : line minimisation
left   ...       0.00000000    -468.56449597
centre ...       0.10000000    -468.57313700
right  ...       0.20000000    -468.57870348

left   ...       0.00000000    -468.56449597
centre ...       0.10000000    -468.57313700
right  ...       0.20000000    -468.57870348
new    ...       0.30000000    -468.58192022

__s__    ...       0.10000000

 ALPHA AFTER:   0.30000000000000004     
  Cycle:    151 Energy:      -468.581920  Gnorm:      0.079729  CPU:    0.924
 Line minimisation2
 ALPHA BEFORE:   0.72039586805065081     
  ** Opt : line minimisation
left   ...       0.00000000    -468.58192022
centre ...       0.10000000    -468.58388382
right  ...       0.20000000    -468.58577482

left   ...       0.00000000    -468.58192022
centre ...       0.10000000    -468.58388382
right  ...       0.20000000    -468.58577482
new    ...       0.30000000    -468.58726473

__s__    ...       0.10000000

left   ...       0.10000000    -468.58388382
centre ...       0.20000000    -468.58577482
right  ...       0.30000000    -468.58726473
new    ...       0.40000000    -468.58868648

__s__    ...       0.10000000

left   ...       0.20000000    -468.58577482
centre ...       0.30000000    -468.58726473
right  ...       0.40000000    -468.58868648
new    ...       0.50000000    -468.58967327

__s__    ...       0.10000000

 ALPHA AFTER:   0.50000000000000000     
  Cycle:    152 Energy:      -468.589673  Gnorm:      0.036885  CPU:    0.929
 Line minimisation2
 ALPHA BEFORE:   0.33333333333333331     
  ** Opt : line minimisation
left   ...       0.00000000    -468.58967327
centre ...       0.08333333    -468.59057022
right  ...       0.16666667    -468.59138882

left   ...       0.00000000    -468.58967327
centre ...       0.08333333    -468.59057022
right  ...       0.16666667    -468.59138882
new    ...       0.26666667    -468.59226737

__s__    ...       0.10000000

left   ...       0.08333333    -468.59057022
centre ...       0.16666667    -468.59138882
right  ...       0.26666667    -468.59226737
new    ...       0.36666667    -468.59305124

__s__    ...       0.10000000

left   ...       0.16666667    -468.59138882
centre ...       0.26666667    -468.59226737
right  ...       0.36666667    -468.59305124
new    ...       0.46666667    -468.59370079

__s__    ...       0.10000000

 ALPHA AFTER:   0.46666666666666667     
  Cycle:    153 Energy:      -468.593701  Gnorm:      0.030963  CPU:    0.934
 Line minimisation2
 ALPHA BEFORE:   0.59875035714809854     
  ** Opt : line minimisation
left   ...       0.00000000    -468.59370079
centre ...       0.10000000    -468.59427115
right  ...       0.20000000    -468.59476171

left   ...       0.00000000    -468.59370079
centre ...       0.10000000    -468.59427115
right  ...       0.20000000    -468.59476171
new    ...       0.30000000    -468.59517200

__s__    ...       0.10000000

left   ...       0.10000000    -468.59427115
centre ...       0.20000000    -468.59476171
right  ...       0.30000000    -468.59517200
new    ...       0.40000000    -468.59550300

__s__    ...       0.10000000

 ALPHA AFTER:   0.40000000000000002     
  Cycle:    154 Energy:      -468.595503  Gnorm:      0.020990  CPU:    0.938
 Line minimisation2
 ALPHA BEFORE:   0.66833302143571660     
  ** Opt : line minimisation
left   ...       0.00000000    -468.59550300
centre ...       0.10000000    -468.59592376
right  ...       0.20000000    -468.59613185

left   ...       0.00000000    -468.59550300
centre ...       0.10000000    -468.59592376
right  ...       0.20000000    -468.59613185
new    ...       0.24785123    -468.59621778

__s__    ...       0.04785123

 ALPHA AFTER:   0.24785123064741238     
  Cycle:    155 Energy:      -468.596218  Gnorm:      0.016500  CPU:    0.942
 Line minimisation2
 ALPHA BEFORE:   0.38410236743407317     
  ** Opt : line minimisation
left   ...       0.00000000    -468.59621778
centre ...       0.09602559    -468.59634189
right  ...       0.19205118    -468.59645050

left   ...       0.00000000    -468.59621778
centre ...       0.09602559    -468.59634189
right  ...       0.19205118    -468.59645050
new    ...       0.29205118    -468.59654732

__s__    ...       0.10000000

left   ...       0.09602559    -468.59634189
centre ...       0.19205118    -468.59645050
right  ...       0.29205118    -468.59654732
new    ...       0.39205118    -468.59662770

__s__    ...       0.10000000

 ALPHA AFTER:   0.39205118371703662     
  Cycle:    156 Energy:      -468.596628  Gnorm:      0.009331  CPU:    0.946
 Line minimisation2
 ALPHA BEFORE:   0.83929916966848572     
  ** Opt : line minimisation
left   ...       0.00000000    -468.59662770
centre ...       0.10000000    -468.59666352
right  ...       0.20000000    -468.59687051

left   ...       0.00000000    -468.59662770
centre ...       0.10000000    -468.59666352
right  ...       0.20000000    -468.59687051
new    ...       0.30000000    -468.59689860

__s__    ...       0.10000000

 ALPHA AFTER:   0.30000000000000004     
  Cycle:    157 Energy:      -468.596899  Gnorm:      0.006875  CPU:    0.950
 Line minimisation2
 ALPHA BEFORE:   0.39869723788446781     
  ** Opt : line minimisation
left   ...       0.00000000    -468.59689860
centre ...       0.09967431    -468.59691872
right  ...       0.19934862    -468.59693648

left   ...       0.00000000    -468.59689860
centre ...       0.09967431    -468.59691872
right  ...       0.19934862    -468.59693648
new    ...       0.29934862    -468.59695190

__s__    ...       0.10000000

left   ...       0.09967431    -468.59691872
centre ...       0.19934862    -468.59693648
right  ...       0.29934862    -468.59695190
new    ...       0.39934862    -468.59696495

__s__    ...       0.10000000

 ALPHA AFTER:   0.39934861894223395     
  Cycle:    158 Energy:      -468.596965  Gnorm:      0.003944  CPU:    0.954
  ** Hessian calculated **
 Line minimisation2
 ALPHA BEFORE:    1.0000000000000000     
  ** Opt : line minimisation
left   ...       0.00000000    -468.59696495
centre ...       0.10000000    -468.59697032
right  ...       0.20000000    -468.59697500

left   ...       0.00000000    -468.59696495
centre ...       0.10000000    -468.59697032
right  ...       0.20000000    -468.59697500
new    ...       0.30000000    -468.59697899

__s__    ...       0.10000000

left   ...       0.10000000    -468.59697032
centre ...       0.20000000    -468.59697500
right  ...       0.30000000    -468.59697899
new    ...       0.40000000    -468.59698232

__s__    ...       0.10000000

 ALPHA AFTER:   0.40000000000000002     
  Cycle:    159 Energy:      -468.596982  Gnorm:      0.003122  CPU:    0.960
 Line minimisation2
 ALPHA BEFORE:   0.43761155600060447     
  ** Opt : line minimisation
left   ...       0.00000000    -468.59698232
centre ...       0.10000000    -468.59698683
right  ...       0.20000000    -468.59699048

left   ...       0.00000000    -468.59698232
centre ...       0.10000000    -468.59698683
right  ...       0.20000000    -468.59699048
new    ...       0.30000000    -468.59699326

__s__    ...       0.10000000

left   ...       0.10000000    -468.59698683
centre ...       0.20000000    -468.59699048
right  ...       0.30000000    -468.59699326
new    ...       0.40000000    -468.59682022

__s__    ...       0.10000000

left   ...       0.20000000    -468.59699048
centre ...       0.30000000    -468.59699326
right  ...       0.40000000    -468.59682022
new    ...       0.30000000    -468.59699326

__s__    ...      -0.10000000

 ALPHA AFTER:   0.30000000000000004     
  Cycle:    160 Energy:      -468.596993  Gnorm:      0.001472  CPU:    0.965
 Line minimisation2
 ALPHA BEFORE:   0.93556220086725583     
  ** Opt : line minimisation
left   ...       0.00000000    -468.59699326
centre ...       0.10000000    -468.59699392
right  ...       0.20000000    -468.59681951

left   ...       0.00000000    -468.59699326
centre ...       0.10000000    -468.59699392
right  ...       0.20000000    -468.59681951
new    ...       0.10000000    -468.59699392

__s__    ...      -0.10000000

 ALPHA AFTER:   0.10000000000000001     
  Cycle:    161 Energy:      -468.596994  Gnorm:      0.001339  CPU:    0.968
 Line minimisation2
 ALPHA BEFORE:    9.8260178119688457E-002
  ** Opt : line minimisation
left   ...       0.00000000    -468.59699392
centre ...       0.02456504    -468.59699407
right  ...       0.04913009    -468.59681922

left   ...       0.00000000    -468.59699392
centre ...       0.02456504    -468.59699407
right  ...       0.04913009    -468.59681922
new    ...       0.01230418    -468.59699399

__s__    ...      -0.03682591

 ALPHA AFTER:    2.4565044529922114E-002
  Cycle:    162 Energy:      -468.596994  Gnorm:      0.001304  CPU:    0.973
 Line minimisation2
 ALPHA BEFORE:    3.4318750391998484E-002
  ** Opt : line minimisation
left   ...       0.00000000    -468.59699407
centre ...       0.00857969    -468.59699411
right  ...       0.01715938    -468.59681915

left   ...       0.00000000    -468.59699407
centre ...       0.00857969    -468.59699411
right  ...       0.01715938    -468.59681915
new    ...       0.00429171    -468.59699409

__s__    ...      -0.01286767

 ALPHA AFTER:    8.5796875979996211E-003
  Cycle:    163 Energy:      -468.596994  Gnorm:      0.001296  CPU:    0.976
 Line minimisation2
 ALPHA BEFORE:    8.7942232880432649E-003
  ** Opt : line minimisation
left   ...       0.00000000    -468.59699411
centre ...       0.00219856    -468.59699412
right  ...       0.00439711    -468.59699413

left   ...       0.00000000    -468.59699411
centre ...       0.00219856    -468.59699412
right  ...       0.00439711    -468.59699413
new    ...       0.10439711    -468.59681955

__s__    ...       0.10000000

left   ...       0.00219856    -468.59699412
centre ...       0.00439711    -468.59699413
right  ...       0.10439711    -468.59681955
new    ...       0.00439711    -468.59699413

__s__    ...      -0.10000000

 ALPHA AFTER:    4.3971116440216325E-003
  Cycle:    164 Energy:      -468.596994  Gnorm:      0.001292  CPU:    0.981
 Line minimisation2
 ALPHA BEFORE:    4.4314368797838469E-003
  ** Opt : line minimisation
left   ...       0.00000000    -468.59699413
centre ...       0.00110786    -468.59681913
right  ...      -0.00110786    -468.59699412

left   ...      -0.00110786    -468.59699412
centre ...       0.00000000    -468.59699413
right  ...       0.00110786    -468.59681913
new    ...      -0.00055390    -468.59699412

__s__    ...       0.00055396

 ALPHA AFTER:   -5.5389972190954533E-004
  Cycle:    165 Energy:      -468.596994  Gnorm:      0.001292  CPU:    0.984
  ** Hessian calculated **
 Line minimisation2
 ALPHA BEFORE:    1.0000000000000000     
  ** Opt : line minimisation
left   ...       0.00000000    -468.59699413
centre ...       0.10000000    -468.59681960
right  ...      -0.10000000    -468.59699361

left   ...      -0.10000000    -468.59699361
centre ...       0.00000000    -468.59699413
right  ...       0.10000000    -468.59681960
new    ...      -0.04970488    -468.59699388

__s__    ...       0.05029512

left   ...      -0.04970488    -468.59699388
centre ...       0.00000000    -468.59699413
right  ...       0.10000000    -468.59681960
new    ...      -0.02463692    -468.59699400

__s__    ...       0.02506795

left   ...      -0.02463692    -468.59699400
centre ...       0.00000000    -468.59699413
right  ...       0.10000000    -468.59681960
new    ...      -0.01214127    -468.59699407

__s__    ...       0.01249565

 ALPHA AFTER:   -1.2141268749008382E-002
  Cycle:    166 Energy:      -468.596994  Gnorm:      0.001292  CPU:    0.991
  ** Hessian calculated **
 Line minimisation2
 ALPHA BEFORE:    1.0000000000000000     
  ** Opt : line minimisation
left   ...       0.00000000    -468.59699413
centre ...       0.10000000    -468.59681960
right  ...      -0.10000000    -468.59699361

left   ...      -0.10000000    -468.59699361
centre ...       0.00000000    -468.59699413
right  ...       0.10000000    -468.59681960
new    ...      -0.04970488    -468.59699388

__s__    ...       0.05029512

left   ...      -0.04970488    -468.59699388
centre ...       0.00000000    -468.59699413
right  ...       0.10000000    -468.59681960
new    ...      -0.02463692    -468.59699400

__s__    ...       0.02506795

left   ...      -0.02463692    -468.59699400
centre ...       0.00000000    -468.59699413
right  ...       0.10000000    -468.59681960
new    ...      -0.01214127    -468.59699407

__s__    ...       0.01249565

 ALPHA AFTER:   -1.2141268749008382E-002


  **** Conditions for a minimum have not been satisfied. However ****
  **** no lower point can be found - treat results with caution  ****
  **** unless gradient norm is small (less than 0.1)             ****


  Final energy =    -468.59699413 eV
  Final Gnorm  =       0.00129164

  Components of energy : 

--------------------------------------------------------------------------------
  Interatomic potentials     =          73.12357263 eV    
  Monopole - monopole (real) =        -279.06664163 eV    
  Monopole - monopole (recip)=        -262.65392513 eV    
  Monopole - monopole (total)=        -541.72056676 eV    
--------------------------------------------------------------------------------
  Total lattice energy       =        -468.59699413 eV    
--------------------------------------------------------------------------------
  Total lattice energy       =          -45212.4468 kJ/(mole unit cells)
--------------------------------------------------------------------------------

  Final fractional coordinates of atoms :

--------------------------------------------------------------------------------
   No.  Atomic        x           y          z          Radius
        Label       (Frac)      (Frac)     (Frac)       (Angs) 
--------------------------------------------------------------------------------
     1  O     c     0.000000    0.333330    0.833330    0.000000
     2  O     c     0.798394    0.642513    0.233205    0.000000
     3  O     c     0.439240    0.689251    0.421627    0.000000
     4  O     c     0.236963    0.006942    0.068069    0.000000
     5  O     c     0.680364    0.320115    0.490753    0.000000
     6  O     c     0.408782    0.388098    0.119312    0.000000
     7  O     c     0.434571    0.201201    0.751022    0.000000
     8  O     c     0.755290    0.050406    0.968748    0.000000
     9  O     c     0.866605    0.980576    0.610132    0.000000
    10  Sr    c     0.618612    0.984980    0.261701    0.000000
    11  Sr    c     0.929713    0.728756    0.912564    0.000000
    12  Sr    c     0.122206    0.863581    0.403238    0.000000
    13  Ti    c     0.583547    0.507233    0.324537    0.000000
    14  Ti    c     0.254273    0.227516    0.931645    0.000000
    15  Ti    c     0.737739    0.177597    0.732381    0.000000
--------------------------------------------------------------------------------

  Final Cartesian lattice vectors (Angstroms) :

        6.216389   -0.156266   -0.318947
       -0.156266    6.850273   -0.009266
       -0.637894   -0.018531    6.753040


  Final cell parameters and derivatives :

--------------------------------------------------------------------------------
       a            6.226527 Angstrom     dE/de1(xx)    -0.004053 eV/strain
       b            6.852061 Angstrom     dE/de2(yy)    -0.005447 eV/strain
       c            6.783127 Angstrom     dE/de3(zz)    -0.014909 eV/strain
       alpha       90.110744 Degrees      dE/de4(yz)    -0.010861 eV/strain
       beta        98.326648 Degrees      dE/de5(xz)     0.004764 eV/strain
       gamma       92.739187 Degrees      dE/de6(xy)    -0.000380 eV/strain
--------------------------------------------------------------------------------

  Primitive cell volume =           286.009663 Angs**3

  Density of cell =      3.196190 g/cm**3

  Non-primitive cell volume =           286.009663 Angs**3


  Final internal derivatives :

--------------------------------------------------------------------------------
   No.  Atomic          a             b             c           Radius
        Label          (eV)          (eV)          (eV)        (eV/Angs)
--------------------------------------------------------------------------------
      1 O     c       0.000000      0.000000      0.000000      0.000000
      2 O     c       0.001922     -0.000518      0.006210      0.000000
      3 O     c       0.007922     -0.009145     -0.009507      0.000000
      4 O     c       0.002924      0.000375     -0.000609      0.000000
      5 O     c       0.010162     -0.013788      0.000430      0.000000
      6 O     c       0.001833     -0.004712     -0.003859      0.000000
      7 O     c      -0.023028      0.015400      0.015532      0.000000
      8 O     c       0.018138     -0.011165     -0.011490      0.000000
      9 O     c      -0.012238      0.000584      0.013626      0.000000
     10 Sr    c       0.003216      0.002168     -0.000583      0.000000
     11 Sr    c      -0.007153      0.010290      0.007435      0.000000
     12 Sr    c      -0.004641      0.000042      0.000236      0.000000
     13 Ti    c      -0.011784      0.012799     -0.003394      0.000000
     14 Ti    c       0.015557      0.002960      0.001482      0.000000
     15 Ti    c       0.003795     -0.003036     -0.006490      0.000000
--------------------------------------------------------------------------------
  Maximum abs         0.023028      0.015400      0.015532      0.000000
--------------------------------------------------------------------------------


  Time to end of optimisation =       0.9983 seconds

 Exiting ------OPTIONS------

  Peak dynamic memory used =       0.60 MB 


  Timing analysis for GULP :

--------------------------------------------------------------------------------
  Task / Subroutine                                          Time (Seconds)
--------------------------------------------------------------------------------
  Calculation of reciprocal space energy and derivatives          0.1086
  Calculation of real space energy and derivatives                0.8671
  Calculation and manipulation of Hessian matrix                  0.0002
  Calculation of matrix inversion                                 0.0006
  Global summation overhead                                       0.0006
--------------------------------------------------------------------------------
  Total CPU time                                                  0.9983
--------------------------------------------------------------------------------


  Job Finished at 16:29.47  3rd February   2020                               

