********************************************************************************
*                       GENERAL UTILITY LATTICE PROGRAM                        *
*                                 Julian Gale                                  *
*                       Curtin Institute for Computation                       *
*                           Department of Chemistry                            *
*                    Curtin University, Western Australia                      *
********************************************************************************
* Version = 5.1.1 * Last modified =  25th August 2019                          *
********************************************************************************
*  optimise     - perform optimisation run                                     *
*  conp         - constant pressure calculation                                *
*  nosymmetry   - turn off symmetry after initial structure generation         *
*  full         - generate full unit cell when symmetry is removed             *
*  conjugate    - use conjugate gradients minimiser                            *
********************************************************************************
* ASE calculation                                                              *
********************************************************************************


  Job Started  at 12:05.33  4th February   2020                               

  Number of CPUs =     1


  Total number of configurations input =      1

********************************************************************************
*  Input for Configuration =   1                                               *
********************************************************************************

  Formula = O9Sr3Ti3                                                    

  Number of irreducible atoms/shells =      15


  Total number atoms/shells =      15

  Dimensionality = 3               :  Bulk   



  Cartesian lattice vectors (Angstroms) :

        4.000000    0.000000    0.000000
        0.000000    4.000000    0.000000
        0.000000    0.000000    8.000000

  Cell parameters (Angstroms/Degrees):

  a =       4.0000    alpha =  90.0000
  b =       4.0000    beta  =  90.0000
  c =       8.0000    gamma =  90.0000

  Initial cell volume =         128.000000 Angs**3

  Temperature of configuration =  0.000     K 

  Pressure of configuration =         0.000 GPa 

  Fractional coordinates of asymmetric unit :

--------------------------------------------------------------------------------
   No.  Atomic       x           y          z         Charge      Occupancy
        Label      (Frac)      (Frac)     (Frac)        (e)         (Frac)  
--------------------------------------------------------------------------------
      1 O     c    0.000000    0.500000    0.250000    -2.00000    1.000000    
      2 O     c    0.500000 *  0.500000 *  0.250000 *  -2.00000    1.000000    
      3 O     c    0.000000 *  0.500000 *  0.500000 *  -2.00000    1.000000    
      4 O     c    0.500000 *  0.000000 *  0.500000 *  -2.00000    1.000000    
      5 O     c    0.500000 *  0.500000 *  0.750000 *  -2.00000    1.000000    
      6 O     c    0.000000 *  0.000000 *  0.000000 *  -2.00000    1.000000    
      7 O     c    0.000000 *  0.000000 *  0.500000 *  -2.00000    1.000000    
      8 O     c    0.500000 *  0.000000 *  0.000000 *  -2.00000    1.000000    
      9 O     c    0.000000 *  0.500000 *  0.750000 *  -2.00000    1.000000    
     10 Sr    c    0.750000 *  0.250000 *  0.375000 *   2.00000    1.000000    
     11 Sr    c    0.750000 *  0.750000 *  0.875000 *   2.00000    1.000000    
     12 Sr    c    0.750000 *  0.750000 *  0.125000 *   2.00000    1.000000    
     13 Ti    c    0.750000 *  0.250000 *  0.875000 *   4.00000    1.000000    
     14 Ti    c    0.250000 *  0.250000 *  0.125000 *   4.00000    1.000000    
     15 Ti    c    0.250000 *  0.750000 *  0.125000 *   4.00000    1.000000    
--------------------------------------------------------------------------------



********************************************************************************
*  General input information                                                   *
********************************************************************************

  Species output for all configurations : 

--------------------------------------------------------------------------------
  Species    Type    Atomic    Atomic    Charge       Radii (Angs)     Library
                     Number     Mass       (e)     Cova   Ionic  VDW   Symbol
--------------------------------------------------------------------------------
    O        Core        8      16.00  -2.000000   0.730  0.000  1.360          
    Sr       Core       38      87.62   2.000000   1.120  0.000  1.670          
    Ti       Core       22      47.88   4.000000   1.470  0.000  2.190          
--------------------------------------------------------------------------------


  Lattice summation method               =    Ewald          (3-D)
                                         =    Parry          (2-D)
                                         =    Saunders et al (1-D)
  Accuracy factor for lattice sums       =   12.000


  Time limit = Infinity

  Maximum range for interatomic potentials =    100000.000000 Angstroms

  General interatomic potentials :

--------------------------------------------------------------------------------
Atom  Types   Potential      Parameter       Value         Units   Cutoffs(Ang)
  1     2                                                            Min /  Max 
--------------------------------------------------------------------------------
O    c Sr   c Buckingham    Buckingham A     1952.3900    eV        0.000 10.000
                            Buckingham rho  0.33685000    Ang       
                            Buckingham C     19.220000    eV*Ang^6  
--------------------------------------------------------------------------------
O    c Ti   c Buckingham    Buckingham A     4590.7279    eV        0.000 10.000
                            Buckingham rho  0.26100000    Ang       
                            Buckingham C     0.0000000    eV*Ang^6  
--------------------------------------------------------------------------------
O    c O    c Buckingham    Buckingham A     1388.7700    eV        0.000 10.000
                            Buckingham rho  0.36262000    Ang       
                            Buckingham C     175.00000    eV*Ang^6  
--------------------------------------------------------------------------------
 Calling ------OPTIONS------

********************************************************************************
*  Output for configuration   1                                                *
********************************************************************************


  Components of energy : 

--------------------------------------------------------------------------------
  Interatomic potentials     =         252.05488473 eV    
  Monopole - monopole (real) =        -121.78183040 eV    
  Monopole - monopole (recip)=        -176.23510212 eV    
  Monopole - monopole (total)=        -298.01693251 eV    
--------------------------------------------------------------------------------
  Total lattice energy       =         -45.96204778 eV    
--------------------------------------------------------------------------------
  Total lattice energy       =           -4434.6350 kJ/(mole unit cells)
--------------------------------------------------------------------------------


  Number of variables =       48

  Maximum number of calculations  =          1000
  Maximum Hessian update interval =            10
  Maximum step size               =   0.001000000
  Maximum parameter tolerance     =   0.000010000
  Maximum function  tolerance     =   0.000010000
  Maximum gradient  tolerance     =   0.001000000
  Maximum gradient  component     =   0.010000000

  Cell parameters to be optimised using strains

  Conjugate gradient optimiser to be used

  Lower half triangular hessian to be used

  Minimiser to switch to BFGS with exact hessian
  When gradient norm is less than     0.500000

  Switch max step size to       0.10000000 when gnorm is less than    10.000000

  Start of bulk optimisation :

  Cycle:      0 Energy:       -45.962048  Gnorm:     36.523722  CPU:    0.014
 Perform trimming
 Line minimisation2
 ALPHA BEFORE:    1.0000000000000000     
  ** Opt : line minimisation
left   ...       0.00000000     -45.96204778
centre ...       0.00100000     -46.47344849
right  ...       0.00200000     -46.99396676

left   ...       0.00000000     -45.96204778
centre ...       0.00100000     -46.47344849
right  ...       0.00200000     -46.99396676
new    ...       0.00300000     -47.51362827

__s__    ...       0.00100000

left   ...       0.00100000     -46.47344849
centre ...       0.00200000     -46.99396676
right  ...       0.00300000     -47.51362827
new    ...       0.00400000     -48.03243371

__s__    ...       0.00100000

left   ...       0.00200000     -46.99396676
centre ...       0.00300000     -47.51362827
right  ...       0.00400000     -48.03243371
new    ...       0.00500000     -48.55038379

__s__    ...       0.00100000

left   ...       0.00300000     -47.51362827
centre ...       0.00400000     -48.03243371
right  ...       0.00500000     -48.55038379
new    ...       0.00600000     -49.06747921

__s__    ...       0.00100000

left   ...       0.00400000     -48.03243371
centre ...       0.00500000     -48.55038379
right  ...       0.00600000     -49.06747921
new    ...       0.00700000     -49.58372068

__s__    ...       0.00100000

left   ...       0.00500000     -48.55038379
centre ...       0.00600000     -49.06747921
right  ...       0.00700000     -49.58372068
new    ...       0.00800000     -50.09910889

__s__    ...       0.00100000

 ALPHA AFTER:    8.0000000000000019E-003
  Cycle:      1 Energy:       -50.099109  Gnorm:     36.055213  CPU:    0.030
 Perform trimming
 Line minimisation2
 ALPHA BEFORE:    8.0000000000000019E-003
  ** Opt : line minimisation
left   ...       0.00000000     -50.09910889
centre ...       0.00100000     -50.87061050
right  ...       0.00200000     -51.64020626

left   ...       0.00000000     -50.09910889
centre ...       0.00100000     -50.87061050
right  ...       0.00200000     -51.64020626
new    ...       0.00300000     -52.40789863

__s__    ...       0.00100000

left   ...       0.00100000     -50.87061050
centre ...       0.00200000     -51.64020626
right  ...       0.00300000     -52.40789863
new    ...       0.00400000     -53.17369005

__s__    ...       0.00100000

left   ...       0.00200000     -51.64020626
centre ...       0.00300000     -52.40789863
right  ...       0.00400000     -53.17369005
new    ...       0.00500000     -53.93758300

__s__    ...       0.00100000

left   ...       0.00300000     -52.40789863
centre ...       0.00400000     -53.17369005
right  ...       0.00500000     -53.93758300
new    ...       0.00600000     -54.69957999

__s__    ...       0.00100000

left   ...       0.00400000     -53.17369005
centre ...       0.00500000     -53.93758300
right  ...       0.00600000     -54.69957999
new    ...       0.00700000     -55.45968353

__s__    ...       0.00100000

left   ...       0.00500000     -53.93758300
centre ...       0.00600000     -54.69957999
right  ...       0.00700000     -55.45968353
new    ...       0.00800000     -56.21789615

__s__    ...       0.00100000

 ALPHA AFTER:    8.0000000000000019E-003
  Cycle:      2 Energy:       -56.217896  Gnorm:     35.362150  CPU:    0.039
 Perform trimming
 Line minimisation2
 ALPHA BEFORE:    8.0000000000000019E-003
  ** Opt : line minimisation
left   ...       0.00000000     -56.21789615
centre ...       0.00100000     -57.35173280
right  ...       0.00200000     -58.48136374

left   ...       0.00000000     -56.21789615
centre ...       0.00100000     -57.35173280
right  ...       0.00200000     -58.48136374
new    ...       0.00300000     -59.60679773

__s__    ...       0.00100000

left   ...       0.00100000     -57.35173280
centre ...       0.00200000     -58.48136374
right  ...       0.00300000     -59.60679773
new    ...       0.00400000     -60.72804365

__s__    ...       0.00100000

left   ...       0.00200000     -58.48136374
centre ...       0.00300000     -59.60679773
right  ...       0.00400000     -60.72804365
new    ...       0.00500000     -61.84511044

__s__    ...       0.00100000

left   ...       0.00300000     -59.60679773
centre ...       0.00400000     -60.72804365
right  ...       0.00500000     -61.84511044
new    ...       0.00600000     -62.95800716

__s__    ...       0.00100000

left   ...       0.00400000     -60.72804365
centre ...       0.00500000     -61.84511044
right  ...       0.00600000     -62.95800716
new    ...       0.00700000     -64.06674295

__s__    ...       0.00100000

left   ...       0.00500000     -61.84511044
centre ...       0.00600000     -62.95800716
right  ...       0.00700000     -64.06674295
new    ...       0.00800000     -65.17130783

__s__    ...       0.00100000

 ALPHA AFTER:    8.0000000000000019E-003
  Cycle:      3 Energy:       -65.171308  Gnorm:     34.346623  CPU:    0.046
 Perform trimming
 Line minimisation2
 ALPHA BEFORE:    8.0000000000000019E-003
  ** Opt : line minimisation
left   ...       0.00000000     -65.17130783
centre ...       0.00100000     -66.82051875
right  ...       0.00200000     -68.46044730

left   ...       0.00000000     -65.17130783
centre ...       0.00100000     -66.82051875
right  ...       0.00200000     -68.46044730
new    ...       0.00300000     -70.09127951

__s__    ...       0.00100000

left   ...       0.00100000     -66.82051875
centre ...       0.00200000     -68.46044730
right  ...       0.00300000     -70.09127951
new    ...       0.00400000     -71.71285587

__s__    ...       0.00100000

left   ...       0.00200000     -68.46044730
centre ...       0.00300000     -70.09127951
right  ...       0.00400000     -71.71285587
new    ...       0.00500000     -73.32545937

__s__    ...       0.00100000

left   ...       0.00300000     -70.09127951
centre ...       0.00400000     -71.71285587
right  ...       0.00500000     -73.32545937
new    ...       0.00600000     -74.92912318

__s__    ...       0.00100000

left   ...       0.00400000     -71.71285587
centre ...       0.00500000     -73.32545937
right  ...       0.00600000     -74.92912318
new    ...       0.00700000     -76.52374659

__s__    ...       0.00100000

left   ...       0.00500000     -73.32545937
centre ...       0.00600000     -74.92912318
right  ...       0.00700000     -76.52374659
new    ...       0.00800000     -78.10944104

__s__    ...       0.00100000

 ALPHA AFTER:    8.0000000000000019E-003
  Cycle:      4 Energy:       -78.109441  Gnorm:     32.881378  CPU:    0.053
 Perform trimming
 Line minimisation2
 ALPHA BEFORE:    8.0000000000000019E-003
  ** Opt : line minimisation
left   ...       0.00000000     -78.10944104
centre ...       0.00100000     -80.47202271
right  ...       0.00200000     -82.81505786

left   ...       0.00000000     -78.10944104
centre ...       0.00100000     -80.47202271
right  ...       0.00200000     -82.81505786
new    ...       0.00300000     -85.13874324

__s__    ...       0.00100000

left   ...       0.00100000     -80.47202271
centre ...       0.00200000     -82.81505786
right  ...       0.00300000     -85.13874324
new    ...       0.00400000     -87.44312402

__s__    ...       0.00100000

left   ...       0.00200000     -82.81505786
centre ...       0.00300000     -85.13874324
right  ...       0.00400000     -87.44312402
new    ...       0.00500000     -89.72832422

__s__    ...       0.00100000

left   ...       0.00300000     -85.13874324
centre ...       0.00400000     -87.44312402
right  ...       0.00500000     -89.72832422
new    ...       0.00600000     -91.99448900

__s__    ...       0.00100000

left   ...       0.00400000     -87.44312402
centre ...       0.00500000     -89.72832422
right  ...       0.00600000     -91.99448900
new    ...       0.00700000     -94.24170779

__s__    ...       0.00100000

left   ...       0.00500000     -89.72832422
centre ...       0.00600000     -91.99448900
right  ...       0.00700000     -94.24170779
new    ...       0.00800000     -96.47012961

__s__    ...       0.00100000

 ALPHA AFTER:    8.0000000000000019E-003
  Cycle:      5 Energy:       -96.470130  Gnorm:     30.825492  CPU:    0.059
 Line minimisation2
 ALPHA BEFORE:    8.0000000000000019E-003
  ** Opt : line minimisation
left   ...       0.00000000     -96.47012961
centre ...       0.00100000     -98.51383448
right  ...       0.00200000    -100.54230603

left   ...       0.00000000     -96.47012961
centre ...       0.00100000     -98.51383448
right  ...       0.00200000    -100.54230603
new    ...       0.00300000    -102.55562849

__s__    ...       0.00100000

left   ...       0.00100000     -98.51383448
centre ...       0.00200000    -100.54230603
right  ...       0.00300000    -102.55562849
new    ...       0.00400000    -104.55394480

__s__    ...       0.00100000

left   ...       0.00200000    -100.54230603
centre ...       0.00300000    -102.55562849
right  ...       0.00400000    -104.55394480
new    ...       0.00500000    -106.53732210

__s__    ...       0.00100000

left   ...       0.00300000    -102.55562849
centre ...       0.00400000    -104.55394480
right  ...       0.00500000    -106.53732210
new    ...       0.00600000    -108.50588620

__s__    ...       0.00100000

left   ...       0.00400000    -104.55394480
centre ...       0.00500000    -106.53732210
right  ...       0.00600000    -108.50588620
new    ...       0.00700000    -110.45976388

__s__    ...       0.00100000

left   ...       0.00500000    -106.53732210
centre ...       0.00600000    -108.50588620
right  ...       0.00700000    -110.45976388
new    ...       0.00800000    -112.39881198

__s__    ...       0.00100000

 ALPHA AFTER:    8.0000000000000019E-003
  Cycle:      6 Energy:      -112.398812  Gnorm:     29.097639  CPU:    0.066
 Line minimisation2
 ALPHA BEFORE:    8.0000000000000019E-003
  ** Opt : line minimisation
left   ...       0.00000000    -112.39881198
centre ...       0.00100000    -114.22964975
right  ...       0.00200000    -116.04811517

left   ...       0.00000000    -112.39881198
centre ...       0.00100000    -114.22964975
right  ...       0.00200000    -116.04811517
new    ...       0.00300000    -117.85416305

__s__    ...       0.00100000

left   ...       0.00100000    -114.22964975
centre ...       0.00200000    -116.04811517
right  ...       0.00300000    -117.85416305
new    ...       0.00400000    -119.64821699

__s__    ...       0.00100000

left   ...       0.00200000    -116.04811517
centre ...       0.00300000    -117.85416305
right  ...       0.00400000    -119.64821699
new    ...       0.00500000    -121.42966974

__s__    ...       0.00100000

left   ...       0.00300000    -117.85416305
centre ...       0.00400000    -119.64821699
right  ...       0.00500000    -121.42966974
new    ...       0.00600000    -123.19896575

__s__    ...       0.00100000

left   ...       0.00400000    -119.64821699
centre ...       0.00500000    -121.42966974
right  ...       0.00600000    -123.19896575
new    ...       0.00700000    -124.95637344

__s__    ...       0.00100000

left   ...       0.00500000    -121.42966974
centre ...       0.00600000    -123.19896575
right  ...       0.00700000    -124.95637344
new    ...       0.00800000    -126.70146246

__s__    ...       0.00100000

 ALPHA AFTER:    8.0000000000000019E-003
  Cycle:      7 Energy:      -126.701462  Gnorm:     27.609994  CPU:    0.073
 Line minimisation2
 ALPHA BEFORE:    8.0000000000000019E-003
  ** Opt : line minimisation
left   ...       0.00000000    -126.70146246
centre ...       0.00100000    -128.35430427
right  ...       0.00200000    -129.99666555

left   ...       0.00000000    -126.70146246
centre ...       0.00100000    -128.35430427
right  ...       0.00200000    -129.99666555
new    ...       0.00300000    -131.62914868

__s__    ...       0.00100000

left   ...       0.00100000    -128.35430427
centre ...       0.00200000    -129.99666555
right  ...       0.00300000    -131.62914868
new    ...       0.00400000    -133.25183329

__s__    ...       0.00100000

left   ...       0.00200000    -129.99666555
centre ...       0.00300000    -131.62914868
right  ...       0.00400000    -133.25183329
new    ...       0.00500000    -134.86409801

__s__    ...       0.00100000

left   ...       0.00300000    -131.62914868
centre ...       0.00400000    -133.25183329
right  ...       0.00500000    -134.86409801
new    ...       0.00600000    -136.46619781

__s__    ...       0.00100000

left   ...       0.00400000    -133.25183329
centre ...       0.00500000    -134.86409801
right  ...       0.00600000    -136.46619781
new    ...       0.00700000    -138.05891179

__s__    ...       0.00100000

left   ...       0.00500000    -134.86409801
centre ...       0.00600000    -136.46619781
right  ...       0.00700000    -138.05891179
new    ...       0.00800000    -139.64161894

__s__    ...       0.00100000

 ALPHA AFTER:    8.0000000000000019E-003
  Cycle:      8 Energy:      -139.641619  Gnorm:     26.330673  CPU:    0.079
 Line minimisation2
 ALPHA BEFORE:    8.0000000000000019E-003
  ** Opt : line minimisation
left   ...       0.00000000    -139.64161894
centre ...       0.00100000    -141.14889296
right  ...       0.00200000    -142.64743272

left   ...       0.00000000    -139.64161894
centre ...       0.00100000    -141.14889296
right  ...       0.00200000    -142.64743272
new    ...       0.00300000    -144.13800354

__s__    ...       0.00100000

left   ...       0.00100000    -141.14889296
centre ...       0.00200000    -142.64743272
right  ...       0.00300000    -144.13800354
new    ...       0.00400000    -145.61977716

__s__    ...       0.00100000

left   ...       0.00200000    -142.64743272
centre ...       0.00300000    -144.13800354
right  ...       0.00400000    -145.61977716
new    ...       0.00500000    -147.09355805

__s__    ...       0.00100000

left   ...       0.00300000    -144.13800354
centre ...       0.00400000    -145.61977716
right  ...       0.00500000    -147.09355805
new    ...       0.00600000    -148.55884807

__s__    ...       0.00100000

left   ...       0.00400000    -145.61977716
centre ...       0.00500000    -147.09355805
right  ...       0.00600000    -148.55884807
new    ...       0.00700000    -150.01610161

__s__    ...       0.00100000

left   ...       0.00500000    -147.09355805
centre ...       0.00600000    -148.55884807
right  ...       0.00700000    -150.01610161
new    ...       0.00800000    -151.46518947

__s__    ...       0.00100000

 ALPHA AFTER:    8.0000000000000019E-003
  Cycle:      9 Energy:      -151.465189  Gnorm:     25.224604  CPU:    0.086
 Line minimisation2
 ALPHA BEFORE:    8.0000000000000019E-003
  ** Opt : line minimisation
left   ...       0.00000000    -151.46518947
centre ...       0.00100000    -152.90859086
right  ...       0.00200000    -154.34454155

left   ...       0.00000000    -151.46518947
centre ...       0.00100000    -152.90859086
right  ...       0.00200000    -154.34454155
new    ...       0.00300000    -155.77257753

__s__    ...       0.00100000

left   ...       0.00100000    -152.90859086
centre ...       0.00200000    -154.34454155
right  ...       0.00300000    -155.77257753
new    ...       0.00400000    -157.19258607

__s__    ...       0.00100000

left   ...       0.00200000    -154.34454155
centre ...       0.00300000    -155.77257753
right  ...       0.00400000    -157.19258607
new    ...       0.00500000    -158.60497771

__s__    ...       0.00100000

left   ...       0.00300000    -155.77257753
centre ...       0.00400000    -157.19258607
right  ...       0.00500000    -158.60497771
new    ...       0.00600000    -160.00981295

__s__    ...       0.00100000

left   ...       0.00400000    -157.19258607
centre ...       0.00500000    -158.60497771
right  ...       0.00600000    -160.00981295
new    ...       0.00700000    -161.40750155

__s__    ...       0.00100000

left   ...       0.00500000    -158.60497771
centre ...       0.00600000    -160.00981295
right  ...       0.00700000    -161.40750155
new    ...       0.00800000    -162.79792776

__s__    ...       0.00100000

 ALPHA AFTER:    8.0000000000000019E-003
  Cycle:     10 Energy:      -162.797928  Gnorm:     24.222189  CPU:    0.092
 Line minimisation2
 ALPHA BEFORE:    8.0000000000000019E-003
  ** Opt : line minimisation
left   ...       0.00000000    -162.79792776
centre ...       0.00100000    -164.07423247
right  ...       0.00200000    -165.34416438

left   ...       0.00000000    -162.79792776
centre ...       0.00100000    -164.07423247
right  ...       0.00200000    -165.34416438
new    ...       0.00300000    -166.60846624

__s__    ...       0.00100000

left   ...       0.00100000    -164.07423247
centre ...       0.00200000    -165.34416438
right  ...       0.00300000    -166.60846624
new    ...       0.00400000    -167.86681097

__s__    ...       0.00100000

left   ...       0.00200000    -165.34416438
centre ...       0.00300000    -166.60846624
right  ...       0.00400000    -167.86681097
new    ...       0.00500000    -169.11927909

__s__    ...       0.00100000

left   ...       0.00300000    -166.60846624
centre ...       0.00400000    -167.86681097
right  ...       0.00500000    -169.11927909
new    ...       0.00600000    -170.36589309

__s__    ...       0.00100000

left   ...       0.00400000    -167.86681097
centre ...       0.00500000    -169.11927909
right  ...       0.00600000    -170.36589309
new    ...       0.00700000    -171.60669431

__s__    ...       0.00100000

left   ...       0.00500000    -169.11927909
centre ...       0.00600000    -170.36589309
right  ...       0.00700000    -171.60669431
new    ...       0.00800000    -172.84172369

__s__    ...       0.00100000

 ALPHA AFTER:    8.0000000000000019E-003
  Cycle:     11 Energy:      -172.841724  Gnorm:     23.381859  CPU:    0.099
 Line minimisation2
 ALPHA BEFORE:    8.0000000000000019E-003
  ** Opt : line minimisation
left   ...       0.00000000    -172.84172369
centre ...       0.00100000    -174.03630076
right  ...       0.00200000    -175.22529807

left   ...       0.00000000    -172.84172369
centre ...       0.00100000    -174.03630076
right  ...       0.00200000    -175.22529807
new    ...       0.00300000    -176.40910051

__s__    ...       0.00100000

left   ...       0.00100000    -174.03630076
centre ...       0.00200000    -175.22529807
right  ...       0.00300000    -176.40910051
new    ...       0.00400000    -177.58791635

__s__    ...       0.00100000

left   ...       0.00200000    -175.22529807
centre ...       0.00300000    -176.40910051
right  ...       0.00400000    -177.58791635
new    ...       0.00500000    -178.76125431

__s__    ...       0.00100000

left   ...       0.00300000    -176.40910051
centre ...       0.00400000    -177.58791635
right  ...       0.00500000    -178.76125431
new    ...       0.00600000    -179.93002239

__s__    ...       0.00100000

left   ...       0.00400000    -177.58791635
centre ...       0.00500000    -178.76125431
right  ...       0.00600000    -179.93002239
new    ...       0.00700000    -181.09372757

__s__    ...       0.00100000

left   ...       0.00500000    -178.76125431
centre ...       0.00600000    -179.93002239
right  ...       0.00700000    -181.09372757
new    ...       0.00800000    -182.25240205

__s__    ...       0.00100000

 ALPHA AFTER:    8.0000000000000019E-003
  Cycle:     12 Energy:      -182.252402  Gnorm:     22.630775  CPU:    0.105
 Line minimisation2
 ALPHA BEFORE:    8.0000000000000019E-003
  ** Opt : line minimisation
left   ...       0.00000000    -182.25240205
centre ...       0.00100000    -183.37163140
right  ...       0.00200000    -184.48631479

left   ...       0.00000000    -182.25240205
centre ...       0.00100000    -183.37163140
right  ...       0.00200000    -184.48631479
new    ...       0.00300000    -185.59647860

__s__    ...       0.00100000

left   ...       0.00100000    -183.37163140
centre ...       0.00200000    -184.48631479
right  ...       0.00300000    -185.59647860
new    ...       0.00400000    -186.70228557

__s__    ...       0.00100000

left   ...       0.00200000    -184.48631479
centre ...       0.00300000    -185.59647860
right  ...       0.00400000    -186.70228557
new    ...       0.00500000    -187.80343065

__s__    ...       0.00100000

left   ...       0.00300000    -185.59647860
centre ...       0.00400000    -186.70228557
right  ...       0.00500000    -187.80343065
new    ...       0.00600000    -188.90007567

__s__    ...       0.00100000

left   ...       0.00400000    -186.70228557
centre ...       0.00500000    -187.80343065
right  ...       0.00600000    -188.90007567
new    ...       0.00700000    -189.99230325

__s__    ...       0.00100000

left   ...       0.00500000    -187.80343065
centre ...       0.00600000    -188.90007567
right  ...       0.00700000    -189.99230325
new    ...       0.00800000    -191.08015703

__s__    ...       0.00100000

 ALPHA AFTER:    8.0000000000000019E-003
  Cycle:     13 Energy:      -191.080157  Gnorm:     21.953918  CPU:    0.112
 Line minimisation2
 ALPHA BEFORE:    8.0000000000000019E-003
  ** Opt : line minimisation
left   ...       0.00000000    -191.08015703
centre ...       0.00100000    -192.13356126
right  ...       0.00200000    -193.18276887

left   ...       0.00000000    -191.08015703
centre ...       0.00100000    -192.13356126
right  ...       0.00200000    -193.18276887
new    ...       0.00300000    -194.22797468

__s__    ...       0.00100000

left   ...       0.00100000    -192.13356126
centre ...       0.00200000    -193.18276887
right  ...       0.00300000    -194.22797468
new    ...       0.00400000    -195.26919841

__s__    ...       0.00100000

left   ...       0.00200000    -193.18276887
centre ...       0.00300000    -194.22797468
right  ...       0.00400000    -195.26919841
new    ...       0.00500000    -196.30640184

__s__    ...       0.00100000

left   ...       0.00300000    -194.22797468
centre ...       0.00400000    -195.26919841
right  ...       0.00500000    -196.30640184
new    ...       0.00600000    -197.33964241

__s__    ...       0.00100000

left   ...       0.00400000    -195.26919841
centre ...       0.00500000    -196.30640184
right  ...       0.00600000    -197.33964241
new    ...       0.00700000    -198.36899639

__s__    ...       0.00100000

left   ...       0.00500000    -196.30640184
centre ...       0.00600000    -197.33964241
right  ...       0.00700000    -198.36899639
new    ...       0.00800000    -199.39432838

__s__    ...       0.00100000

 ALPHA AFTER:    8.0000000000000019E-003
  Cycle:     14 Energy:      -199.394328  Gnorm:     21.336185  CPU:    0.119
 Line minimisation2
 ALPHA BEFORE:    8.0000000000000019E-003
  ** Opt : line minimisation
left   ...       0.00000000    -199.39432838
centre ...       0.00100000    -200.38876349
right  ...       0.00200000    -201.37955676

left   ...       0.00000000    -199.39432838
centre ...       0.00100000    -200.38876349
right  ...       0.00200000    -201.37955676
new    ...       0.00300000    -202.36678078

__s__    ...       0.00100000

left   ...       0.00100000    -200.38876349
centre ...       0.00200000    -201.37955676
right  ...       0.00300000    -202.36678078
new    ...       0.00400000    -203.35041161

__s__    ...       0.00100000

left   ...       0.00200000    -201.37955676
centre ...       0.00300000    -202.36678078
right  ...       0.00400000    -203.35041161
new    ...       0.00500000    -204.33044430

__s__    ...       0.00100000

left   ...       0.00300000    -202.36678078
centre ...       0.00400000    -203.35041161
right  ...       0.00500000    -204.33044430
new    ...       0.00600000    -205.30693118

__s__    ...       0.00100000

left   ...       0.00400000    -203.35041161
centre ...       0.00500000    -204.33044430
right  ...       0.00600000    -205.30693118
new    ...       0.00700000    -206.27984743

__s__    ...       0.00100000

left   ...       0.00500000    -204.33044430
centre ...       0.00600000    -205.30693118
right  ...       0.00700000    -206.27984743
new    ...       0.00800000    -207.24922552

__s__    ...       0.00100000

 ALPHA AFTER:    8.0000000000000019E-003
  Cycle:     15 Energy:      -207.249226  Gnorm:     20.765631  CPU:    0.126
 Line minimisation2
 ALPHA BEFORE:    8.0000000000000019E-003
  ** Opt : line minimisation
left   ...       0.00000000    -207.24922552
centre ...       0.00100000    -208.19047758
right  ...       0.00200000    -209.12846393

left   ...       0.00000000    -207.24922552
centre ...       0.00100000    -208.19047758
right  ...       0.00200000    -209.12846393
new    ...       0.00300000    -210.06317600

__s__    ...       0.00100000

left   ...       0.00100000    -208.19047758
centre ...       0.00200000    -209.12846393
right  ...       0.00300000    -210.06317600
new    ...       0.00400000    -210.99464343

__s__    ...       0.00100000

left   ...       0.00200000    -209.12846393
centre ...       0.00300000    -210.06317600
right  ...       0.00400000    -210.99464343
new    ...       0.00500000    -211.92283792

__s__    ...       0.00100000

left   ...       0.00300000    -210.06317600
centre ...       0.00400000    -210.99464343
right  ...       0.00500000    -211.92283792
new    ...       0.00600000    -212.84778856

__s__    ...       0.00100000

left   ...       0.00400000    -210.99464343
centre ...       0.00500000    -211.92283792
right  ...       0.00600000    -212.84778856
new    ...       0.00700000    -213.76948568

__s__    ...       0.00100000

left   ...       0.00500000    -211.92283792
centre ...       0.00600000    -212.84778856
right  ...       0.00700000    -213.76948568
new    ...       0.00800000    -214.68795778

__s__    ...       0.00100000

 ALPHA AFTER:    8.0000000000000019E-003
  Cycle:     16 Energy:      -214.687958  Gnorm:     20.232888  CPU:    0.132
 Line minimisation2
 ALPHA BEFORE:    8.0000000000000019E-003
  ** Opt : line minimisation
left   ...       0.00000000    -214.68795778
centre ...       0.00100000    -215.58070832
right  ...       0.00200000    -216.47041125

left   ...       0.00000000    -214.68795778
centre ...       0.00100000    -215.58070832
right  ...       0.00200000    -216.47041125
new    ...       0.00300000    -217.35713163

__s__    ...       0.00100000

left   ...       0.00100000    -215.58070832
centre ...       0.00200000    -216.47041125
right  ...       0.00300000    -217.35713163
new    ...       0.00400000    -218.24083818

__s__    ...       0.00100000

left   ...       0.00200000    -216.47041125
centre ...       0.00300000    -217.35713163
right  ...       0.00400000    -218.24083818
new    ...       0.00500000    -219.12155700

__s__    ...       0.00100000

left   ...       0.00300000    -217.35713163
centre ...       0.00400000    -218.24083818
right  ...       0.00500000    -219.12155700
new    ...       0.00600000    -219.99929478

__s__    ...       0.00100000

left   ...       0.00400000    -218.24083818
centre ...       0.00500000    -219.12155700
right  ...       0.00600000    -219.99929478
new    ...       0.00700000    -220.87425221

__s__    ...       0.00100000

left   ...       0.00500000    -219.12155700
centre ...       0.00600000    -219.99929478
right  ...       0.00700000    -220.87425221
new    ...       0.00800000    -221.74606619

__s__    ...       0.00100000

 ALPHA AFTER:    8.0000000000000019E-003
  Cycle:     17 Energy:      -221.746066  Gnorm:     19.730633  CPU:    0.139
 Line minimisation2
 ALPHA BEFORE:    8.0000000000000019E-003
  ** Opt : line minimisation
left   ...       0.00000000    -221.74606619
centre ...       0.00100000    -222.59401957
right  ...       0.00200000    -223.43919249

left   ...       0.00000000    -221.74606619
centre ...       0.00100000    -222.59401957
right  ...       0.00200000    -223.43919249
new    ...       0.00300000    -224.28158974

__s__    ...       0.00100000

left   ...       0.00100000    -222.59401957
centre ...       0.00200000    -223.43919249
right  ...       0.00300000    -224.28158974
new    ...       0.00400000    -225.12137180

__s__    ...       0.00100000

left   ...       0.00200000    -223.43919249
centre ...       0.00300000    -224.28158974
right  ...       0.00400000    -225.12137180
new    ...       0.00500000    -225.95840647

__s__    ...       0.00100000

left   ...       0.00300000    -224.28158974
centre ...       0.00400000    -225.12137180
right  ...       0.00500000    -225.95840647
new    ...       0.00600000    -226.79248461

__s__    ...       0.00100000

left   ...       0.00400000    -225.12137180
centre ...       0.00500000    -225.95840647
right  ...       0.00600000    -226.79248461
new    ...       0.00700000    -227.62382342

__s__    ...       0.00100000

left   ...       0.00500000    -225.95840647
centre ...       0.00600000    -226.79248461
right  ...       0.00700000    -227.62382342
new    ...       0.00800000    -228.45258246

__s__    ...       0.00100000

 ALPHA AFTER:    8.0000000000000019E-003
  Cycle:     18 Energy:      -228.452582  Gnorm:     19.253225  CPU:    0.146
 Line minimisation2
 ALPHA BEFORE:    8.0000000000000019E-003
  ** Opt : line minimisation
left   ...       0.00000000    -228.45258246
centre ...       0.00100000    -229.25891883
right  ...       0.00200000    -230.06264839

left   ...       0.00000000    -228.45258246
centre ...       0.00100000    -229.25891883
right  ...       0.00200000    -230.06264839
new    ...       0.00300000    -230.86381239

__s__    ...       0.00100000

left   ...       0.00100000    -229.25891883
centre ...       0.00200000    -230.06264839
right  ...       0.00300000    -230.86381239
new    ...       0.00400000    -231.66237501

__s__    ...       0.00100000

left   ...       0.00200000    -230.06264839
centre ...       0.00300000    -230.86381239
right  ...       0.00400000    -231.66237501
new    ...       0.00500000    -232.45837717

__s__    ...       0.00100000

left   ...       0.00300000    -230.86381239
centre ...       0.00400000    -231.66237501
right  ...       0.00500000    -232.45837717
new    ...       0.00600000    -233.25180190

__s__    ...       0.00100000

left   ...       0.00400000    -231.66237501
centre ...       0.00500000    -232.45837717
right  ...       0.00600000    -233.25180190
new    ...       0.00700000    -234.04265132

__s__    ...       0.00100000

left   ...       0.00500000    -232.45837717
centre ...       0.00600000    -233.25180190
right  ...       0.00700000    -234.04265132
new    ...       0.00800000    -234.83110243

__s__    ...       0.00100000

 ALPHA AFTER:    8.0000000000000019E-003
  Cycle:     19 Energy:      -234.831102  Gnorm:     18.796359  CPU:    0.155
 Line minimisation2
 ALPHA BEFORE:    8.0000000000000019E-003
  ** Opt : line minimisation
left   ...       0.00000000    -234.83110243
centre ...       0.00100000    -235.61662561
right  ...       0.00200000    -236.39961019

left   ...       0.00000000    -234.83110243
centre ...       0.00100000    -235.61662561
right  ...       0.00200000    -236.39961019
new    ...       0.00300000    -237.18005757

__s__    ...       0.00100000

left   ...       0.00100000    -235.61662561
centre ...       0.00200000    -236.39961019
right  ...       0.00300000    -237.18005757
new    ...       0.00400000    -237.95779404

__s__    ...       0.00100000

left   ...       0.00200000    -236.39961019
centre ...       0.00300000    -237.18005757
right  ...       0.00400000    -237.95779404
new    ...       0.00500000    -238.73299596

__s__    ...       0.00100000

left   ...       0.00300000    -237.18005757
centre ...       0.00400000    -237.95779404
right  ...       0.00500000    -238.73299596
new    ...       0.00600000    -239.50583932

__s__    ...       0.00100000

left   ...       0.00400000    -237.95779404
centre ...       0.00500000    -238.73299596
right  ...       0.00600000    -239.50583932
new    ...       0.00700000    -240.27628607

__s__    ...       0.00100000

left   ...       0.00500000    -238.73299596
centre ...       0.00600000    -239.50583932
right  ...       0.00700000    -240.27628607
new    ...       0.00800000    -241.04386966

__s__    ...       0.00100000

 ALPHA AFTER:    8.0000000000000019E-003
  Cycle:     20 Energy:      -241.043870  Gnorm:     18.346402  CPU:    0.162
 Line minimisation2
 ALPHA BEFORE:    8.0000000000000019E-003
  ** Opt : line minimisation
left   ...       0.00000000    -241.04386966
centre ...       0.00100000    -241.77284546
right  ...       0.00200000    -242.49972758

left   ...       0.00000000    -241.04386966
centre ...       0.00100000    -241.77284546
right  ...       0.00200000    -242.49972758
new    ...       0.00300000    -243.22451602

__s__    ...       0.00100000

left   ...       0.00100000    -241.77284546
centre ...       0.00200000    -242.49972758
right  ...       0.00300000    -243.22451602
new    ...       0.00400000    -243.94668596

__s__    ...       0.00100000

left   ...       0.00200000    -242.49972758
centre ...       0.00300000    -243.22451602
right  ...       0.00400000    -243.94668596
new    ...       0.00500000    -244.66676256

__s__    ...       0.00100000

left   ...       0.00300000    -243.22451602
centre ...       0.00400000    -243.94668596
right  ...       0.00500000    -244.66676256
new    ...       0.00600000    -245.38457050

__s__    ...       0.00100000

left   ...       0.00400000    -243.94668596
centre ...       0.00500000    -244.66676256
right  ...       0.00600000    -245.38457050
new    ...       0.00700000    -246.10010976

__s__    ...       0.00100000

left   ...       0.00500000    -244.66676256
centre ...       0.00600000    -245.38457050
right  ...       0.00700000    -246.10010976
new    ...       0.00800000    -246.81337957

__s__    ...       0.00100000

 ALPHA AFTER:    8.0000000000000019E-003
  Cycle:     21 Energy:      -246.813380  Gnorm:     17.922629  CPU:    0.169
 Line minimisation2
 ALPHA BEFORE:    8.0000000000000019E-003
  ** Opt : line minimisation
left   ...       0.00000000    -246.81337957
centre ...       0.00100000    -247.50893544
right  ...       0.00200000    -248.20236460

left   ...       0.00000000    -246.81337957
centre ...       0.00100000    -247.50893544
right  ...       0.00200000    -248.20236460
new    ...       0.00300000    -248.89364724

__s__    ...       0.00100000

left   ...       0.00100000    -247.50893544
centre ...       0.00200000    -248.20236460
right  ...       0.00300000    -248.89364724
new    ...       0.00400000    -249.58278267

__s__    ...       0.00100000

left   ...       0.00200000    -248.20236460
centre ...       0.00300000    -248.89364724
right  ...       0.00400000    -249.58278267
new    ...       0.00500000    -250.26924561

__s__    ...       0.00100000

left   ...       0.00300000    -248.89364724
centre ...       0.00400000    -249.58278267
right  ...       0.00500000    -250.26924561
new    ...       0.00600000    -250.95408547

__s__    ...       0.00100000

left   ...       0.00400000    -249.58278267
centre ...       0.00500000    -250.26924561
right  ...       0.00600000    -250.95408547
new    ...       0.00700000    -251.63677557

__s__    ...       0.00100000

left   ...       0.00500000    -250.26924561
centre ...       0.00600000    -250.95408547
right  ...       0.00700000    -251.63677557
new    ...       0.00800000    -252.31731490

__s__    ...       0.00100000

 ALPHA AFTER:    8.0000000000000019E-003
  Cycle:     22 Energy:      -252.317315  Gnorm:     17.511486  CPU:    0.176
 Line minimisation2
 ALPHA BEFORE:    8.0000000000000019E-003
  ** Opt : line minimisation
left   ...       0.00000000    -252.31731490
centre ...       0.00100000    -252.97989195
right  ...       0.00200000    -253.63869040

left   ...       0.00000000    -252.31731490
centre ...       0.00100000    -252.97989195
right  ...       0.00200000    -253.63869040
new    ...       0.00300000    -254.29756033

__s__    ...       0.00100000

left   ...       0.00100000    -252.97989195
centre ...       0.00200000    -253.63869040
right  ...       0.00300000    -254.29756033
new    ...       0.00400000    -254.95437940

__s__    ...       0.00100000

left   ...       0.00200000    -253.63869040
centre ...       0.00300000    -254.29756033
right  ...       0.00400000    -254.95437940
new    ...       0.00500000    -255.60900996

__s__    ...       0.00100000

left   ...       0.00300000    -254.29756033
centre ...       0.00400000    -254.95437940
right  ...       0.00500000    -255.60900996
new    ...       0.00600000    -256.26125702

__s__    ...       0.00100000

left   ...       0.00400000    -254.95437940
centre ...       0.00500000    -255.60900996
right  ...       0.00600000    -256.26125702
new    ...       0.00700000    -256.91199384

__s__    ...       0.00100000

left   ...       0.00500000    -255.60900996
centre ...       0.00600000    -256.26125702
right  ...       0.00700000    -256.91199384
new    ...       0.00800000    -257.56051873

__s__    ...       0.00100000

 ALPHA AFTER:    8.0000000000000019E-003
  Cycle:     23 Energy:      -257.560519  Gnorm:     17.112395  CPU:    0.183
 Line minimisation2
 ALPHA BEFORE:    8.0000000000000019E-003
  ** Opt : line minimisation
left   ...       0.00000000    -257.56051873
centre ...       0.00100000    -258.19255519
right  ...       0.00200000    -258.82231976

left   ...       0.00000000    -257.56051873
centre ...       0.00100000    -258.19255519
right  ...       0.00200000    -258.82231976
new    ...       0.00300000    -259.45051060

__s__    ...       0.00100000

left   ...       0.00100000    -258.19255519
centre ...       0.00200000    -258.82231976
right  ...       0.00300000    -259.45051060
new    ...       0.00400000    -260.07677605

__s__    ...       0.00100000

left   ...       0.00200000    -258.82231976
centre ...       0.00300000    -259.45051060
right  ...       0.00400000    -260.07677605
new    ...       0.00500000    -260.70109538

__s__    ...       0.00100000

left   ...       0.00300000    -259.45051060
centre ...       0.00400000    -260.07677605
right  ...       0.00500000    -260.70109538
new    ...       0.00600000    -261.32333059

__s__    ...       0.00100000

left   ...       0.00400000    -260.07677605
centre ...       0.00500000    -260.70109538
right  ...       0.00600000    -261.32333059
new    ...       0.00700000    -261.94223683

__s__    ...       0.00100000

left   ...       0.00500000    -260.70109538
centre ...       0.00600000    -261.32333059
right  ...       0.00700000    -261.94223683
new    ...       0.00800000    -262.55903749

__s__    ...       0.00100000

 ALPHA AFTER:    8.0000000000000019E-003
  Cycle:     24 Energy:      -262.559037  Gnorm:     16.724384  CPU:    0.189
 Line minimisation2
 ALPHA BEFORE:    8.0000000000000019E-003
  ** Opt : line minimisation
left   ...       0.00000000    -262.55903749
centre ...       0.00100000    -263.16176213
right  ...       0.00200000    -263.76266385

left   ...       0.00000000    -262.55903749
centre ...       0.00100000    -263.16176213
right  ...       0.00200000    -263.76266385
new    ...       0.00300000    -264.36172182

__s__    ...       0.00100000

left   ...       0.00100000    -263.16176213
centre ...       0.00200000    -263.76266385
right  ...       0.00300000    -264.36172182
new    ...       0.00400000    -264.95897286

__s__    ...       0.00100000

left   ...       0.00200000    -263.76266385
centre ...       0.00300000    -264.36172182
right  ...       0.00400000    -264.95897286
new    ...       0.00500000    -265.55439603

__s__    ...       0.00100000

left   ...       0.00300000    -264.36172182
centre ...       0.00400000    -264.95897286
right  ...       0.00500000    -265.55439603
new    ...       0.00600000    -266.14798963

__s__    ...       0.00100000

left   ...       0.00400000    -264.95897286
centre ...       0.00500000    -265.55439603
right  ...       0.00600000    -266.14798963
new    ...       0.00700000    -266.73975191

__s__    ...       0.00100000

left   ...       0.00500000    -265.55439603
centre ...       0.00600000    -266.14798963
right  ...       0.00700000    -266.73975191
new    ...       0.00800000    -267.32950616

__s__    ...       0.00100000

 ALPHA AFTER:    8.0000000000000019E-003
  Cycle:     25 Energy:      -267.329506  Gnorm:     16.346850  CPU:    0.196
 Line minimisation2
 ALPHA BEFORE:    8.0000000000000019E-003
  ** Opt : line minimisation
left   ...       0.00000000    -267.32950616
centre ...       0.00100000    -267.90399530
right  ...       0.00200000    -268.47716318

left   ...       0.00000000    -267.32950616
centre ...       0.00100000    -267.90399530
right  ...       0.00200000    -268.47716318
new    ...       0.00300000    -269.04840596

__s__    ...       0.00100000

left   ...       0.00100000    -267.90399530
centre ...       0.00200000    -268.47716318
right  ...       0.00300000    -269.04840596
new    ...       0.00400000    -269.61811061

__s__    ...       0.00100000

left   ...       0.00200000    -268.47716318
centre ...       0.00300000    -269.04840596
right  ...       0.00400000    -269.61811061
new    ...       0.00500000    -270.18590590

__s__    ...       0.00100000

left   ...       0.00300000    -269.04840596
centre ...       0.00400000    -269.61811061
right  ...       0.00500000    -270.18590590
new    ...       0.00600000    -270.75175246

__s__    ...       0.00100000

left   ...       0.00400000    -269.61811061
centre ...       0.00500000    -270.18590590
right  ...       0.00600000    -270.75175246
new    ...       0.00700000    -271.31601714

__s__    ...       0.00100000

left   ...       0.00500000    -270.18590590
centre ...       0.00600000    -270.75175246
right  ...       0.00700000    -271.31601714
new    ...       0.00800000    -271.87875591

__s__    ...       0.00100000

 ALPHA AFTER:    8.0000000000000019E-003
  Cycle:     26 Energy:      -271.878756  Gnorm:     15.979624  CPU:    0.203
 Line minimisation2
 ALPHA BEFORE:    8.0000000000000019E-003
  ** Opt : line minimisation
left   ...       0.00000000    -271.87875591
centre ...       0.00100000    -272.42721006
right  ...       0.00200000    -272.97404283

left   ...       0.00000000    -271.87875591
centre ...       0.00100000    -272.42721006
right  ...       0.00200000    -272.97404283
new    ...       0.00300000    -273.51882629

__s__    ...       0.00100000

left   ...       0.00100000    -272.42721006
centre ...       0.00200000    -272.97404283
right  ...       0.00300000    -273.51882629
new    ...       0.00400000    -274.06216052

__s__    ...       0.00100000

left   ...       0.00200000    -272.97404283
centre ...       0.00300000    -273.51882629
right  ...       0.00400000    -274.06216052
new    ...       0.00500000    -274.60406274

__s__    ...       0.00100000

left   ...       0.00300000    -273.51882629
centre ...       0.00400000    -274.06216052
right  ...       0.00500000    -274.60406274
new    ...       0.00600000    -275.14416207

__s__    ...       0.00100000

left   ...       0.00400000    -274.06216052
centre ...       0.00500000    -274.60406274
right  ...       0.00600000    -275.14416207
new    ...       0.00700000    -275.68255501

__s__    ...       0.00100000

left   ...       0.00500000    -274.60406274
centre ...       0.00600000    -275.14416207
right  ...       0.00700000    -275.68255501
new    ...       0.00800000    -276.21937458

__s__    ...       0.00100000

 ALPHA AFTER:    8.0000000000000019E-003
  Cycle:     27 Energy:      -276.219375  Gnorm:     15.622452  CPU:    0.209
 Line minimisation2
 ALPHA BEFORE:    8.0000000000000019E-003
  ** Opt : line minimisation
left   ...       0.00000000    -276.21937458
centre ...       0.00100000    -276.74228471
right  ...       0.00200000    -277.26414520

left   ...       0.00000000    -276.21937458
centre ...       0.00100000    -276.74228471
right  ...       0.00200000    -277.26414520
new    ...       0.00300000    -277.78423465

__s__    ...       0.00100000

left   ...       0.00100000    -276.74228471
centre ...       0.00200000    -277.26414520
right  ...       0.00300000    -277.78423465
new    ...       0.00400000    -278.30299783

__s__    ...       0.00100000

left   ...       0.00200000    -277.26414520
centre ...       0.00300000    -277.78423465
right  ...       0.00400000    -278.30299783
new    ...       0.00500000    -278.81998698

__s__    ...       0.00100000

left   ...       0.00300000    -277.78423465
centre ...       0.00400000    -278.30299783
right  ...       0.00500000    -278.81998698
new    ...       0.00600000    -279.33562714

__s__    ...       0.00100000

left   ...       0.00400000    -278.30299783
centre ...       0.00500000    -278.81998698
right  ...       0.00600000    -279.33562714
new    ...       0.00700000    -279.84970320

__s__    ...       0.00100000

left   ...       0.00500000    -278.81998698
centre ...       0.00600000    -279.33562714
right  ...       0.00700000    -279.84970320
new    ...       0.00800000    -280.36221355

__s__    ...       0.00100000

 ALPHA AFTER:    8.0000000000000019E-003
  Cycle:     28 Energy:      -280.362214  Gnorm:     15.275238  CPU:    0.216
 Line minimisation2
 ALPHA BEFORE:    8.0000000000000019E-003
  ** Opt : line minimisation
left   ...       0.00000000    -280.36221355
centre ...       0.00100000    -280.86188076
right  ...       0.00200000    -281.36005343

left   ...       0.00000000    -280.36221355
centre ...       0.00100000    -280.86188076
right  ...       0.00200000    -281.36005343
new    ...       0.00300000    -281.85657458

__s__    ...       0.00100000

left   ...       0.00100000    -280.86188076
centre ...       0.00200000    -281.36005343
right  ...       0.00300000    -281.85657458
new    ...       0.00400000    -282.35163702

__s__    ...       0.00100000

left   ...       0.00200000    -281.36005343
centre ...       0.00300000    -281.85657458
right  ...       0.00400000    -282.35163702
new    ...       0.00500000    -282.84556982

__s__    ...       0.00100000

 ALPHA AFTER:    5.0000000000000010E-003
  Cycle:     29 Energy:      -282.845570  Gnorm:     15.064509  CPU:    0.220
 Line minimisation2
 ALPHA BEFORE:    5.0000000000000010E-003
  ** Opt : line minimisation
left   ...       0.00000000    -282.84556982
centre ...       0.00100000    -283.34160425
right  ...       0.00200000    -283.83612879

left   ...       0.00000000    -282.84556982
centre ...       0.00100000    -283.34160425
right  ...       0.00200000    -283.83612879
new    ...       0.00300000    -284.32935517

__s__    ...       0.00100000

left   ...       0.00100000    -283.34160425
centre ...       0.00200000    -283.83612879
right  ...       0.00300000    -284.32935517
new    ...       0.00400000    -284.82104921

__s__    ...       0.00100000

left   ...       0.00200000    -283.83612879
centre ...       0.00300000    -284.32935517
right  ...       0.00400000    -284.82104921
new    ...       0.00500000    -285.31124789

__s__    ...       0.00100000

 ALPHA AFTER:    5.0000000000000010E-003
  Cycle:     30 Energy:      -285.311248  Gnorm:     14.853029  CPU:    0.225
 Line minimisation2
 ALPHA BEFORE:    5.0000000000000010E-003
  ** Opt : line minimisation
left   ...       0.00000000    -285.31124789
centre ...       0.00100000    -285.78637248
right  ...       0.00200000    -286.25992217

left   ...       0.00000000    -285.31124789
centre ...       0.00100000    -285.78637248
right  ...       0.00200000    -286.25992217
new    ...       0.00300000    -286.73222659

__s__    ...       0.00100000

left   ...       0.00100000    -285.78637248
centre ...       0.00200000    -286.25992217
right  ...       0.00300000    -286.73222659
new    ...       0.00400000    -287.20299218

__s__    ...       0.00100000

left   ...       0.00200000    -286.25992217
centre ...       0.00300000    -286.73222659
right  ...       0.00400000    -287.20299218
new    ...       0.00500000    -287.67077960

__s__    ...       0.00100000

 ALPHA AFTER:    5.0000000000000010E-003
  Cycle:     31 Energy:      -287.670780  Gnorm:     14.648554  CPU:    0.229
 Line minimisation2
 ALPHA BEFORE:    5.0000000000000010E-003
  ** Opt : line minimisation
left   ...       0.00000000    -287.67077960
centre ...       0.00100000    -288.13250768
right  ...       0.00200000    -288.59301863

left   ...       0.00000000    -287.67077960
centre ...       0.00100000    -288.13250768
right  ...       0.00200000    -288.59301863
new    ...       0.00300000    -289.05221294

__s__    ...       0.00100000

left   ...       0.00100000    -288.13250768
centre ...       0.00200000    -288.59301863
right  ...       0.00300000    -289.05221294
new    ...       0.00400000    -289.50968183

__s__    ...       0.00100000

left   ...       0.00200000    -288.59301863
centre ...       0.00300000    -289.05221294
right  ...       0.00400000    -289.50968183
new    ...       0.00500000    -289.96616283

__s__    ...       0.00100000

 ALPHA AFTER:    5.0000000000000010E-003
  Cycle:     32 Energy:      -289.966163  Gnorm:     14.447906  CPU:    0.234
 Line minimisation2
 ALPHA BEFORE:    5.0000000000000010E-003
  ** Opt : line minimisation
left   ...       0.00000000    -289.96616283
centre ...       0.00100000    -290.41507768
right  ...       0.00200000    -290.86250974

left   ...       0.00000000    -289.96616283
centre ...       0.00100000    -290.41507768
right  ...       0.00200000    -290.86250974
new    ...       0.00300000    -291.30863320

__s__    ...       0.00100000

left   ...       0.00100000    -290.41507768
centre ...       0.00200000    -290.86250974
right  ...       0.00300000    -291.30863320
new    ...       0.00400000    -291.75362175

__s__    ...       0.00100000

left   ...       0.00200000    -290.86250974
centre ...       0.00300000    -291.30863320
right  ...       0.00400000    -291.75362175
new    ...       0.00500000    -292.19694964

__s__    ...       0.00100000

 ALPHA AFTER:    5.0000000000000010E-003
  Cycle:     33 Energy:      -292.196950  Gnorm:     14.251207  CPU:    0.238
 Line minimisation2
 ALPHA BEFORE:    5.0000000000000010E-003
  ** Opt : line minimisation
left   ...       0.00000000    -292.19694964
centre ...       0.00100000    -292.63332684
right  ...       0.00200000    -293.06826610

left   ...       0.00000000    -292.19694964
centre ...       0.00100000    -292.63332684
right  ...       0.00200000    -293.06826610
new    ...       0.00300000    -293.50229152

__s__    ...       0.00100000

left   ...       0.00100000    -292.63332684
centre ...       0.00200000    -293.06826610
right  ...       0.00300000    -293.50229152
new    ...       0.00400000    -293.93487697

__s__    ...       0.00100000

left   ...       0.00200000    -293.06826610
centre ...       0.00300000    -293.50229152
right  ...       0.00400000    -293.93487697
new    ...       0.00500000    -294.36617711

__s__    ...       0.00100000

 ALPHA AFTER:    5.0000000000000010E-003
  Cycle:     34 Energy:      -294.366177  Gnorm:     14.058426  CPU:    0.243
 Line minimisation2
 ALPHA BEFORE:    5.0000000000000010E-003
  ** Opt : line minimisation
left   ...       0.00000000    -294.36617711
centre ...       0.00100000    -294.79027142
right  ...       0.00200000    -295.21332164

left   ...       0.00000000    -294.36617711
centre ...       0.00100000    -294.79027142
right  ...       0.00200000    -295.21332164
new    ...       0.00300000    -295.63497661

__s__    ...       0.00100000

left   ...       0.00100000    -294.79027142
centre ...       0.00200000    -295.21332164
right  ...       0.00300000    -295.63497661
new    ...       0.00400000    -296.05504175

__s__    ...       0.00100000

left   ...       0.00200000    -295.21332164
centre ...       0.00300000    -295.63497661
right  ...       0.00400000    -296.05504175
new    ...       0.00500000    -296.47407948

__s__    ...       0.00100000

 ALPHA AFTER:    5.0000000000000010E-003
  Cycle:     35 Energy:      -296.474079  Gnorm:     13.869643  CPU:    0.247
 Line minimisation2
 ALPHA BEFORE:    5.0000000000000010E-003
  ** Opt : line minimisation
left   ...       0.00000000    -296.47407948
centre ...       0.00100000    -296.88649237
right  ...       0.00200000    -297.29790369

left   ...       0.00000000    -296.47407948
centre ...       0.00100000    -296.88649237
right  ...       0.00200000    -297.29790369
new    ...       0.00300000    -297.70790488

__s__    ...       0.00100000

left   ...       0.00100000    -296.88649237
centre ...       0.00200000    -297.29790369
right  ...       0.00300000    -297.70790488
new    ...       0.00400000    -298.11678545

__s__    ...       0.00100000

left   ...       0.00200000    -297.29790369
centre ...       0.00300000    -297.70790488
right  ...       0.00400000    -298.11678545
new    ...       0.00500000    -298.52466173

__s__    ...       0.00100000

 ALPHA AFTER:    5.0000000000000010E-003
  Cycle:     36 Energy:      -298.524662  Gnorm:     13.684772  CPU:    0.252
 Line minimisation2
 ALPHA BEFORE:    5.0000000000000010E-003
  ** Opt : line minimisation
left   ...       0.00000000    -298.52466173
centre ...       0.00100000    -298.92544940
right  ...       0.00200000    -299.32562701

left   ...       0.00000000    -298.52466173
centre ...       0.00100000    -298.92544940
right  ...       0.00200000    -299.32562701
new    ...       0.00300000    -299.72291860

__s__    ...       0.00100000

left   ...       0.00100000    -298.92544940
centre ...       0.00200000    -299.32562701
right  ...       0.00300000    -299.72291860
new    ...       0.00400000    -300.12080687

__s__    ...       0.00100000

left   ...       0.00200000    -299.32562701
centre ...       0.00300000    -299.72291860
right  ...       0.00400000    -300.12080687
new    ...       0.00500000    -300.51718834

__s__    ...       0.00100000

 ALPHA AFTER:    5.0000000000000010E-003
  Cycle:     37 Energy:      -300.517188  Gnorm:     13.503970  CPU:    0.256
 Line minimisation2
 ALPHA BEFORE:    5.0000000000000010E-003
  ** Opt : line minimisation
left   ...       0.00000000    -300.51718834
centre ...       0.00100000    -300.90746084
right  ...       0.00200000    -301.29681309

left   ...       0.00000000    -300.51718834
centre ...       0.00100000    -300.90746084
right  ...       0.00200000    -301.29681309
new    ...       0.00300000    -301.68506924

__s__    ...       0.00100000

left   ...       0.00100000    -300.90746084
centre ...       0.00200000    -301.29681309
right  ...       0.00300000    -301.68506924
new    ...       0.00400000    -302.07222857

__s__    ...       0.00100000

left   ...       0.00200000    -301.29681309
centre ...       0.00300000    -301.68506924
right  ...       0.00400000    -302.07222857
new    ...       0.00500000    -302.45829040

__s__    ...       0.00100000

 ALPHA AFTER:    5.0000000000000010E-003
  Cycle:     38 Energy:      -302.458290  Gnorm:     13.326932  CPU:    0.261
 Line minimisation2
 ALPHA BEFORE:    5.0000000000000010E-003
  ** Opt : line minimisation
left   ...       0.00000000    -302.45829040
centre ...       0.00100000    -302.83663079
right  ...       0.00200000    -303.21535516

left   ...       0.00000000    -302.45829040
centre ...       0.00100000    -302.83663079
right  ...       0.00200000    -303.21535516
new    ...       0.00300000    -303.59315930

__s__    ...       0.00100000

left   ...       0.00100000    -302.83663079
centre ...       0.00200000    -303.21535516
right  ...       0.00300000    -303.59315930
new    ...       0.00400000    -303.96837110

__s__    ...       0.00100000

left   ...       0.00200000    -303.21535516
centre ...       0.00300000    -303.59315930
right  ...       0.00400000    -303.96837110
new    ...       0.00500000    -304.34408148

__s__    ...       0.00100000

 ALPHA AFTER:    5.0000000000000010E-003
  Cycle:     39 Energy:      -304.344081  Gnorm:     13.154016  CPU:    0.266
 Line minimisation2
 ALPHA BEFORE:    5.0000000000000010E-003
  ** Opt : line minimisation
left   ...       0.00000000    -304.34408148
centre ...       0.00100000    -304.71871354
right  ...       0.00200000    -305.09230037

left   ...       0.00000000    -304.34408148
centre ...       0.00100000    -304.71871354
right  ...       0.00200000    -305.09230037
new    ...       0.00300000    -305.46501641

__s__    ...       0.00100000

left   ...       0.00100000    -304.71871354
centre ...       0.00200000    -305.09230037
right  ...       0.00300000    -305.46501641
new    ...       0.00400000    -305.83651111

__s__    ...       0.00100000

left   ...       0.00200000    -305.09230037
centre ...       0.00300000    -305.46501641
right  ...       0.00400000    -305.83651111
new    ...       0.00500000    -306.20695883

__s__    ...       0.00100000

 ALPHA AFTER:    5.0000000000000010E-003
  Cycle:     40 Energy:      -306.206959  Gnorm:     12.982569  CPU:    0.270
 Line minimisation2
 ALPHA BEFORE:    5.0000000000000010E-003
  ** Opt : line minimisation
left   ...       0.00000000    -306.20695883
centre ...       0.00100000    -306.56697080
right  ...       0.00200000    -306.92602149

left   ...       0.00000000    -306.20695883
centre ...       0.00100000    -306.56697080
right  ...       0.00200000    -306.92602149
new    ...       0.00300000    -307.28232320

__s__    ...       0.00100000

left   ...       0.00100000    -306.56697080
centre ...       0.00200000    -306.92602149
right  ...       0.00300000    -307.28232320
new    ...       0.00400000    -307.63921954

__s__    ...       0.00100000

left   ...       0.00200000    -306.92602149
centre ...       0.00300000    -307.28232320
right  ...       0.00400000    -307.63921954
new    ...       0.00500000    -307.99495893

__s__    ...       0.00100000

 ALPHA AFTER:    5.0000000000000010E-003
  Cycle:     41 Energy:      -307.994959  Gnorm:     12.817410  CPU:    0.274
 Line minimisation2
 ALPHA BEFORE:    5.0000000000000010E-003
  ** Opt : line minimisation
left   ...       0.00000000    -307.99495893
centre ...       0.00100000    -308.34556207
right  ...       0.00200000    -308.69521946

left   ...       0.00000000    -307.99495893
centre ...       0.00100000    -308.34556207
right  ...       0.00200000    -308.69521946
new    ...       0.00300000    -309.04373663

__s__    ...       0.00100000

left   ...       0.00100000    -308.34556207
centre ...       0.00200000    -308.69521946
right  ...       0.00300000    -309.04373663
new    ...       0.00400000    -309.39150154

__s__    ...       0.00100000

left   ...       0.00200000    -308.69521946
centre ...       0.00300000    -309.04373663
right  ...       0.00400000    -309.39150154
new    ...       0.00500000    -309.73814456

__s__    ...       0.00100000

 ALPHA AFTER:    5.0000000000000010E-003
  Cycle:     42 Energy:      -309.738145  Gnorm:     12.655931  CPU:    0.279
 Line minimisation2
 ALPHA BEFORE:    5.0000000000000010E-003
  ** Opt : line minimisation
left   ...       0.00000000    -309.73814456
centre ...       0.00100000    -310.07969723
right  ...       0.00200000    -310.42012546

left   ...       0.00000000    -309.73814456
centre ...       0.00100000    -310.07969723
right  ...       0.00200000    -310.42012546
new    ...       0.00300000    -310.75968057

__s__    ...       0.00100000

left   ...       0.00100000    -310.07969723
centre ...       0.00200000    -310.42012546
right  ...       0.00300000    -310.75968057
new    ...       0.00400000    -311.09830484

__s__    ...       0.00100000

left   ...       0.00200000    -310.42012546
centre ...       0.00300000    -310.75968057
right  ...       0.00400000    -311.09830484
new    ...       0.00500000    -311.43621103

__s__    ...       0.00100000

 ALPHA AFTER:    5.0000000000000010E-003
  Cycle:     43 Energy:      -311.436211  Gnorm:     12.498261  CPU:    0.283
 Line minimisation2
 ALPHA BEFORE:    5.0000000000000010E-003
  ** Opt : line minimisation
left   ...       0.00000000    -311.43621103
centre ...       0.00100000    -311.76905219
right  ...       0.00200000    -312.10101550

left   ...       0.00000000    -311.43621103
centre ...       0.00100000    -311.76905219
right  ...       0.00200000    -312.10101550
new    ...       0.00300000    -312.43210060

__s__    ...       0.00100000

left   ...       0.00100000    -311.76905219
centre ...       0.00200000    -312.10101550
right  ...       0.00300000    -312.43210060
new    ...       0.00400000    -312.76228798

__s__    ...       0.00100000

left   ...       0.00200000    -312.10101550
centre ...       0.00300000    -312.43210060
right  ...       0.00400000    -312.76228798
new    ...       0.00500000    -313.09159651

__s__    ...       0.00100000

 ALPHA AFTER:    5.0000000000000010E-003
  Cycle:     44 Energy:      -313.091597  Gnorm:     12.344324  CPU:    0.288
 Line minimisation2
 ALPHA BEFORE:    5.0000000000000010E-003
  ** Opt : line minimisation
left   ...       0.00000000    -313.09159651
centre ...       0.00100000    -313.41604555
right  ...       0.00200000    -313.73962980

left   ...       0.00000000    -313.09159651
centre ...       0.00100000    -313.41604555
right  ...       0.00200000    -313.73962980
new    ...       0.00300000    -314.06238742

__s__    ...       0.00100000

left   ...       0.00100000    -313.41604555
centre ...       0.00200000    -313.73962980
right  ...       0.00300000    -314.06238742
new    ...       0.00400000    -314.38429888

__s__    ...       0.00100000

left   ...       0.00200000    -313.73962980
centre ...       0.00300000    -314.06238742
right  ...       0.00400000    -314.38429888
new    ...       0.00500000    -314.70516997

__s__    ...       0.00100000

 ALPHA AFTER:    5.0000000000000010E-003
  Cycle:     45 Energy:      -314.705170  Gnorm:     12.194116  CPU:    0.292
 Line minimisation2
 ALPHA BEFORE:    5.0000000000000010E-003
  ** Opt : line minimisation
left   ...       0.00000000    -314.70516997
centre ...       0.00100000    -315.02101524
right  ...       0.00200000    -315.33657143

left   ...       0.00000000    -314.70516997
centre ...       0.00100000    -315.02101524
right  ...       0.00200000    -315.33657143
new    ...       0.00300000    -315.65148804

__s__    ...       0.00100000

left   ...       0.00100000    -315.02101524
centre ...       0.00200000    -315.33657143
right  ...       0.00300000    -315.65148804
new    ...       0.00400000    -315.96523997

__s__    ...       0.00100000

left   ...       0.00200000    -315.33657143
centre ...       0.00300000    -315.65148804
right  ...       0.00400000    -315.96523997
new    ...       0.00500000    -316.27835185

__s__    ...       0.00100000

 ALPHA AFTER:    5.0000000000000010E-003
  Cycle:     46 Energy:      -316.278352  Gnorm:     12.047609  CPU:    0.297
 Line minimisation2
 ALPHA BEFORE:    5.0000000000000010E-003
  ** Opt : line minimisation
left   ...       0.00000000    -316.27835185
centre ...       0.00100000    -316.58677002
right  ...       0.00200000    -316.89457900

left   ...       0.00000000    -316.27835185
centre ...       0.00100000    -316.58677002
right  ...       0.00200000    -316.89457900
new    ...       0.00300000    -317.20142867

__s__    ...       0.00100000

left   ...       0.00100000    -316.58677002
centre ...       0.00200000    -316.89457900
right  ...       0.00300000    -317.20142867
new    ...       0.00400000    -317.50729972

__s__    ...       0.00100000

left   ...       0.00200000    -316.89457900
centre ...       0.00300000    -317.20142867
right  ...       0.00400000    -317.50729972
new    ...       0.00500000    -317.81275549

__s__    ...       0.00100000

 ALPHA AFTER:    5.0000000000000010E-003
  Cycle:     47 Energy:      -317.812755  Gnorm:     11.904716  CPU:    0.301
 Line minimisation2
 ALPHA BEFORE:    5.0000000000000010E-003
  ** Opt : line minimisation
left   ...       0.00000000    -317.81275549
centre ...       0.00100000    -318.11386094
right  ...       0.00200000    -318.41419205

left   ...       0.00000000    -317.81275549
centre ...       0.00100000    -318.11386094
right  ...       0.00200000    -318.41419205
new    ...       0.00300000    -318.71378704

__s__    ...       0.00100000

left   ...       0.00100000    -318.11386094
centre ...       0.00200000    -318.41419205
right  ...       0.00300000    -318.71378704
new    ...       0.00400000    -319.01262652

__s__    ...       0.00100000

left   ...       0.00200000    -318.41419205
centre ...       0.00300000    -318.71378704
right  ...       0.00400000    -319.01262652
new    ...       0.00500000    -319.31071030

__s__    ...       0.00100000

 ALPHA AFTER:    5.0000000000000010E-003
  Cycle:     48 Energy:      -319.310710  Gnorm:     11.765352  CPU:    0.305
 Line minimisation2
 ALPHA BEFORE:    5.0000000000000010E-003
  ** Opt : line minimisation
left   ...       0.00000000    -319.31071030
centre ...       0.00100000    -319.60460581
right  ...       0.00200000    -319.89777424

left   ...       0.00000000    -319.31071030
centre ...       0.00100000    -319.60460581
right  ...       0.00200000    -319.89777424
new    ...       0.00300000    -320.19021545

__s__    ...       0.00100000

left   ...       0.00100000    -319.60460581
centre ...       0.00200000    -319.89777424
right  ...       0.00300000    -320.19021545
new    ...       0.00400000    -320.48173521

__s__    ...       0.00100000

left   ...       0.00200000    -319.89777424
centre ...       0.00300000    -320.19021545
right  ...       0.00400000    -320.48173521
new    ...       0.00500000    -320.77272176

__s__    ...       0.00100000

 ALPHA AFTER:    5.0000000000000010E-003
  Cycle:     49 Energy:      -320.772722  Gnorm:     11.629510  CPU:    0.310
 Line minimisation2
 ALPHA BEFORE:    5.0000000000000010E-003
  ** Opt : line minimisation
left   ...       0.00000000    -320.77272176
centre ...       0.00100000    -321.06279952
right  ...       0.00200000    -321.35233623

left   ...       0.00000000    -320.77272176
centre ...       0.00100000    -321.06279952
right  ...       0.00200000    -321.35233623
new    ...       0.00300000    -321.64098173

__s__    ...       0.00100000

left   ...       0.00100000    -321.06279952
centre ...       0.00200000    -321.35233623
right  ...       0.00300000    -321.64098173
new    ...       0.00400000    -321.92906642

__s__    ...       0.00100000

left   ...       0.00200000    -321.35233623
centre ...       0.00300000    -321.64098173
right  ...       0.00400000    -321.92906642
new    ...       0.00500000    -322.21645365

__s__    ...       0.00100000

 ALPHA AFTER:    5.0000000000000010E-003
  Cycle:     50 Energy:      -322.216454  Gnorm:     11.495603  CPU:    0.314
 Line minimisation2
 ALPHA BEFORE:    5.0000000000000010E-003
  ** Opt : line minimisation
left   ...       0.00000000    -322.21645365
centre ...       0.00100000    -322.49658374
right  ...       0.00200000    -322.77604058

left   ...       0.00000000    -322.21645365
centre ...       0.00100000    -322.49658374
right  ...       0.00200000    -322.77604058
new    ...       0.00300000    -323.05443587

__s__    ...       0.00100000

left   ...       0.00100000    -322.49658374
centre ...       0.00200000    -322.77604058
right  ...       0.00300000    -323.05443587
new    ...       0.00400000    -323.33254646

__s__    ...       0.00100000

left   ...       0.00200000    -322.77604058
centre ...       0.00300000    -323.05443587
right  ...       0.00400000    -323.33254646
new    ...       0.00500000    -323.60963375

__s__    ...       0.00100000

 ALPHA AFTER:    5.0000000000000010E-003
  Cycle:     51 Energy:      -323.609634  Gnorm:     11.366711  CPU:    0.319
 Line minimisation2
 ALPHA BEFORE:    5.0000000000000010E-003
  ** Opt : line minimisation
left   ...       0.00000000    -323.60963375
centre ...       0.00100000    -323.88341920
right  ...       0.00200000    -324.15655614

left   ...       0.00000000    -323.60963375
centre ...       0.00100000    -323.88341920
right  ...       0.00200000    -324.15655614
new    ...       0.00300000    -324.42904449

__s__    ...       0.00100000

left   ...       0.00100000    -323.88341920
centre ...       0.00200000    -324.15655614
right  ...       0.00300000    -324.42904449
new    ...       0.00400000    -324.70070932

__s__    ...       0.00100000

left   ...       0.00200000    -324.15655614
centre ...       0.00300000    -324.42904449
right  ...       0.00400000    -324.70070932
new    ...       0.00500000    -324.97188128

__s__    ...       0.00100000

 ALPHA AFTER:    5.0000000000000010E-003
  Cycle:     52 Energy:      -324.971881  Gnorm:     11.241078  CPU:    0.323
 Line minimisation2
 ALPHA BEFORE:    5.0000000000000010E-003
  ** Opt : line minimisation
left   ...       0.00000000    -324.97188128
centre ...       0.00100000    -325.23948205
right  ...       0.00200000    -325.50645852

left   ...       0.00000000    -324.97188128
centre ...       0.00100000    -325.23948205
right  ...       0.00200000    -325.50645852
new    ...       0.00300000    -325.77279143

__s__    ...       0.00100000

left   ...       0.00100000    -325.23948205
centre ...       0.00200000    -325.50645852
right  ...       0.00300000    -325.77279143
new    ...       0.00400000    -326.03849991

__s__    ...       0.00100000

left   ...       0.00200000    -325.50645852
centre ...       0.00300000    -325.77279143
right  ...       0.00400000    -326.03849991
new    ...       0.00500000    -326.30342833

__s__    ...       0.00100000

 ALPHA AFTER:    5.0000000000000010E-003
  Cycle:     53 Energy:      -326.303428  Gnorm:     11.118709  CPU:    0.327
 Line minimisation2
 ALPHA BEFORE:    5.0000000000000010E-003
  ** Opt : line minimisation
left   ...       0.00000000    -326.30342833
centre ...       0.00100000    -326.56507952
right  ...       0.00200000    -326.82612971

left   ...       0.00000000    -326.30342833
centre ...       0.00100000    -326.56507952
right  ...       0.00200000    -326.82612971
new    ...       0.00300000    -327.08657884

__s__    ...       0.00100000

left   ...       0.00100000    -326.56507952
centre ...       0.00200000    -326.82612971
right  ...       0.00300000    -327.08657884
new    ...       0.00400000    -327.34642685

__s__    ...       0.00100000

left   ...       0.00200000    -326.82612971
centre ...       0.00300000    -327.08657884
right  ...       0.00400000    -327.34642685
new    ...       0.00500000    -327.60567370

__s__    ...       0.00100000

 ALPHA AFTER:    5.0000000000000010E-003
  Cycle:     54 Energy:      -327.605674  Gnorm:     10.999527  CPU:    0.332
 Line minimisation2
 ALPHA BEFORE:    5.0000000000000010E-003
  ** Opt : line minimisation
left   ...       0.00000000    -327.60567370
centre ...       0.00100000    -327.86142350
right  ...       0.00200000    -328.11659481

left   ...       0.00000000    -327.60567370
centre ...       0.00100000    -327.86142350
right  ...       0.00200000    -328.11659481
new    ...       0.00300000    -328.37136271

__s__    ...       0.00100000

left   ...       0.00100000    -327.86142350
centre ...       0.00200000    -328.11659481
right  ...       0.00300000    -328.37136271
[...]
centre ...       0.30000000    -471.89421123
right  ...       0.40000000    -471.90459417
new    ...       0.50000000    -471.91403475

__s__    ...       0.10000000

 ALPHA AFTER:   0.50000000000000000     
  Cycle:    113 Energy:      -471.914035  Gnorm:      0.196497  CPU:    0.682
 Line minimisation2
 ALPHA BEFORE:   0.33333333333333331     
  ** Opt : line minimisation
left   ...       0.00000000    -471.91403475
centre ...       0.08333333    -471.92999403
right  ...       0.16666667    -471.94527685

left   ...       0.00000000    -471.91403475
centre ...       0.08333333    -471.92999403
right  ...       0.16666667    -471.94527685
new    ...       0.26666667    -471.96315519

__s__    ...       0.10000000

left   ...       0.08333333    -471.92999403
centre ...       0.16666667    -471.94527685
right  ...       0.26666667    -471.96315519
new    ...       0.36666667    -471.97935281

__s__    ...       0.10000000

left   ...       0.16666667    -471.94527685
centre ...       0.26666667    -471.96315519
right  ...       0.36666667    -471.97935281
new    ...       0.46666667    -471.99386348

__s__    ...       0.10000000

 ALPHA AFTER:   0.46666666666666667     
  Cycle:    114 Energy:      -471.993863  Gnorm:      0.260570  CPU:    0.688
 Line minimisation2
 ALPHA BEFORE:   0.31111111111111117     
  ** Opt : line minimisation
left   ...       0.00000000    -471.99386348
centre ...       0.07777778    -472.01639935
right  ...       0.15555556    -472.03648536

left   ...       0.00000000    -471.99386348
centre ...       0.07777778    -472.01639935
right  ...       0.15555556    -472.03648536
new    ...       0.25555556    -472.05753742

__s__    ...       0.10000000

left   ...       0.07777778    -472.01639935
centre ...       0.15555556    -472.03648536
right  ...       0.25555556    -472.05753742
new    ...       0.35555556    -472.07055418

__s__    ...       0.10000000

 ALPHA AFTER:   0.35555555555555562     
  Cycle:    115 Energy:      -472.070554  Gnorm:      0.317043  CPU:    0.694
 Line minimisation2
 ALPHA BEFORE:    1.3628418123202499     
  ** Opt : line minimisation
left   ...       0.00000000    -472.07055418
centre ...       0.10000000    -472.08290642
right  ...       0.20000000    -472.09457672

left   ...       0.00000000    -472.07055418
centre ...       0.10000000    -472.08290642
right  ...       0.20000000    -472.09457672
new    ...       0.30000000    -472.10497242

__s__    ...       0.10000000

left   ...       0.10000000    -472.08290642
centre ...       0.20000000    -472.09457672
right  ...       0.30000000    -472.10497242
new    ...       0.40000000    -472.11413343

__s__    ...       0.10000000

left   ...       0.20000000    -472.09457672
centre ...       0.30000000    -472.10497242
right  ...       0.40000000    -472.11413343
new    ...       0.50000000    -472.12263630

__s__    ...       0.10000000

 ALPHA AFTER:   0.50000000000000000     
  Cycle:    116 Energy:      -472.122636  Gnorm:      0.298331  CPU:    0.700
 Line minimisation2
 ALPHA BEFORE:   0.40271497521127392     
  ** Opt : line minimisation
left   ...       0.00000000    -472.12263630
centre ...       0.10000000    -472.15358218
right  ...       0.20000000    -472.18186180

left   ...       0.00000000    -472.12263630
centre ...       0.10000000    -472.15358218
right  ...       0.20000000    -472.18186180
new    ...       0.30000000    -472.20791015

__s__    ...       0.10000000

left   ...       0.10000000    -472.15358218
centre ...       0.20000000    -472.18186180
right  ...       0.30000000    -472.20791015
new    ...       0.40000000    -472.23176921

__s__    ...       0.10000000

left   ...       0.20000000    -472.18186180
centre ...       0.30000000    -472.20791015
right  ...       0.40000000    -472.23176921
new    ...       0.50000000    -472.25257791

__s__    ...       0.10000000

 ALPHA AFTER:   0.50000000000000000     
  Cycle:    117 Energy:      -472.252578  Gnorm:      0.200897  CPU:    0.706
  ** Hessian calculated **
 Line minimisation2
 ALPHA BEFORE:    1.0000000000000000     
  ** Opt : line minimisation
left   ...       0.00000000    -472.25257791
centre ...       0.10000000    -472.28032480
right  ...       0.20000000    -472.30664524

left   ...       0.00000000    -472.25257791
centre ...       0.10000000    -472.28032480
right  ...       0.20000000    -472.30664524
new    ...       0.30000000    -472.33167826

__s__    ...       0.10000000

left   ...       0.10000000    -472.28032480
centre ...       0.20000000    -472.30664524
right  ...       0.30000000    -472.33167826
new    ...       0.40000000    -472.35507667

__s__    ...       0.10000000

left   ...       0.20000000    -472.30664524
centre ...       0.30000000    -472.33167826
right  ...       0.40000000    -472.35507667
new    ...       0.50000000    -472.37695900

__s__    ...       0.10000000

 ALPHA AFTER:   0.50000000000000000     
  Cycle:    118 Energy:      -472.376959  Gnorm:      0.150446  CPU:    0.713
 Line minimisation2
 ALPHA BEFORE:   0.33333333333333331     
  ** Opt : line minimisation
left   ...       0.00000000    -472.37695900
centre ...       0.08333333    -472.40172696
right  ...       0.16666667    -472.42415848

left   ...       0.00000000    -472.37695900
centre ...       0.08333333    -472.40172696
right  ...       0.16666667    -472.42415848
new    ...       0.26666667    -472.44835470

__s__    ...       0.10000000

left   ...       0.08333333    -472.40172696
centre ...       0.16666667    -472.42415848
right  ...       0.26666667    -472.44835470
new    ...       0.36666667    -472.46910373

__s__    ...       0.10000000

left   ...       0.16666667    -472.42415848
centre ...       0.26666667    -472.44835470
right  ...       0.36666667    -472.46910373
new    ...       0.46666667    -472.48675217

__s__    ...       0.10000000

 ALPHA AFTER:   0.46666666666666667     
  Cycle:    119 Energy:      -472.486752  Gnorm:      0.079522  CPU:    0.718
 Line minimisation2
 ALPHA BEFORE:   0.84435305685204953     
  ** Opt : line minimisation
left   ...       0.00000000    -472.48675217
centre ...       0.10000000    -472.49484668
right  ...       0.20000000    -472.50207667

left   ...       0.00000000    -472.48675217
centre ...       0.10000000    -472.49484668
right  ...       0.20000000    -472.50207667
new    ...       0.30000000    -472.50826646

__s__    ...       0.10000000

left   ...       0.10000000    -472.49484668
centre ...       0.20000000    -472.50207667
right  ...       0.30000000    -472.50826646
new    ...       0.40000000    -472.51516410

__s__    ...       0.10000000

left   ...       0.20000000    -472.50207667
centre ...       0.30000000    -472.50826646
right  ...       0.40000000    -472.51516410
new    ...       0.50000000    -472.51962056

__s__    ...       0.10000000

 ALPHA AFTER:   0.50000000000000000     
  Cycle:    120 Energy:      -472.519621  Gnorm:      0.039837  CPU:    0.723
 Line minimisation2
 ALPHA BEFORE:   0.98016939940865266     
  ** Opt : line minimisation
left   ...       0.00000000    -472.51962056
centre ...       0.10000000    -472.52168454
right  ...       0.20000000    -472.52337267

left   ...       0.00000000    -472.51962056
centre ...       0.10000000    -472.52168454
right  ...       0.20000000    -472.52337267
new    ...       0.30000000    -472.52503522

__s__    ...       0.10000000

left   ...       0.10000000    -472.52168454
centre ...       0.20000000    -472.52337267
right  ...       0.30000000    -472.52503522
new    ...       0.40000000    -472.52632254

__s__    ...       0.10000000

 ALPHA AFTER:   0.40000000000000002     
  Cycle:    121 Energy:      -472.526323  Gnorm:      0.024157  CPU:    0.727
 Line minimisation2
 ALPHA BEFORE:   0.65147583436474588     
  ** Opt : line minimisation
left   ...       0.00000000    -472.52632254
centre ...       0.10000000    -472.52701445
right  ...       0.20000000    -472.52763318

left   ...       0.00000000    -472.52632254
centre ...       0.10000000    -472.52701445
right  ...       0.20000000    -472.52763318
new    ...       0.30000000    -472.52835389

__s__    ...       0.10000000

left   ...       0.10000000    -472.52701445
centre ...       0.20000000    -472.52763318
right  ...       0.30000000    -472.52835389
new    ...       0.40000000    -472.52882691

__s__    ...       0.10000000

 ALPHA AFTER:   0.40000000000000002     
  Cycle:    122 Energy:      -472.528827  Gnorm:      0.014590  CPU:    0.732
 Line minimisation2
 ALPHA BEFORE:   0.65234376586669474     
  ** Opt : line minimisation
left   ...       0.00000000    -472.52882691
centre ...       0.10000000    -472.52908091
right  ...       0.20000000    -472.52930808

left   ...       0.00000000    -472.52882691
centre ...       0.10000000    -472.52908091
right  ...       0.20000000    -472.52930808
new    ...       0.30000000    -472.52950845

__s__    ...       0.10000000

left   ...       0.10000000    -472.52908091
centre ...       0.20000000    -472.52930808
right  ...       0.30000000    -472.52950845
new    ...       0.40000000    -472.52968209

__s__    ...       0.10000000

left   ...       0.20000000    -472.52930808
centre ...       0.30000000    -472.52950845
right  ...       0.40000000    -472.52968209
new    ...       0.50000000    -472.52982904

__s__    ...       0.10000000

 ALPHA AFTER:   0.50000000000000000     
  Cycle:    123 Energy:      -472.529829  Gnorm:      0.007345  CPU:    0.737
 Line minimisation2
 ALPHA BEFORE:   0.98541244989992094     
  ** Opt : line minimisation
left   ...       0.00000000    -472.52982904
centre ...       0.10000000    -472.52989377
right  ...       0.20000000    -472.52995167

left   ...       0.00000000    -472.52982904
centre ...       0.10000000    -472.52989377
right  ...       0.20000000    -472.52995167
new    ...       0.30000000    -472.53000274

__s__    ...       0.10000000

left   ...       0.10000000    -472.52989377
centre ...       0.20000000    -472.52995167
right  ...       0.30000000    -472.53000274
new    ...       0.40000000    -472.53004698

__s__    ...       0.10000000

left   ...       0.20000000    -472.52995167
centre ...       0.30000000    -472.53000274
right  ...       0.40000000    -472.53004698
new    ...       0.50000000    -472.53008442

__s__    ...       0.10000000

 ALPHA AFTER:   0.50000000000000000     
  Cycle:    124 Energy:      -472.530084  Gnorm:      0.003696  CPU:    0.742
 Line minimisation2
 ALPHA BEFORE:   0.98650241306984487     
  ** Opt : line minimisation
left   ...       0.00000000    -472.53008442
centre ...       0.10000000    -472.53010085
right  ...       0.20000000    -472.53011554

left   ...       0.00000000    -472.53008442
centre ...       0.10000000    -472.53010085
right  ...       0.20000000    -472.53011554
new    ...       0.30000000    -472.53012849

__s__    ...       0.10000000

left   ...       0.10000000    -472.53010085
centre ...       0.20000000    -472.53011554
right  ...       0.30000000    -472.53012849
new    ...       0.40000000    -472.53013970

__s__    ...       0.10000000

left   ...       0.20000000    -472.53011554
centre ...       0.30000000    -472.53012849
right  ...       0.40000000    -472.53013970
new    ...       0.50000000    -472.53014918

__s__    ...       0.10000000

 ALPHA AFTER:   0.50000000000000000     
  Cycle:    125 Energy:      -472.530149  Gnorm:      0.001857  CPU:    0.747
 Line minimisation2
 ALPHA BEFORE:   0.99664947360314837     
  ** Opt : line minimisation
left   ...       0.00000000    -472.53014918
centre ...       0.10000000    -472.53015331
right  ...       0.20000000    -472.53015700

left   ...       0.00000000    -472.53014918
centre ...       0.10000000    -472.53015331
right  ...       0.20000000    -472.53015700
new    ...       0.30000000    -472.53016024

__s__    ...       0.10000000

left   ...       0.10000000    -472.53015331
centre ...       0.20000000    -472.53015700
right  ...       0.30000000    -472.53016024
new    ...       0.40000000    -472.53016306

__s__    ...       0.10000000

left   ...       0.20000000    -472.53015700
centre ...       0.30000000    -472.53016024
right  ...       0.40000000    -472.53016306
new    ...       0.50000000    -472.53016543

__s__    ...       0.10000000

 ALPHA AFTER:   0.50000000000000000     
  Cycle:    126 Energy:      -472.530165  Gnorm:      0.000933  CPU:    0.752
 Line minimisation2
 ALPHA BEFORE:    1.0014974516568027     
  ** Opt : line minimisation
left   ...       0.00000000    -472.53016543
centre ...       0.10000000    -472.53016646
right  ...       0.20000000    -472.53016738

left   ...       0.00000000    -472.53016543
centre ...       0.10000000    -472.53016646
right  ...       0.20000000    -472.53016738
new    ...       0.30000000    -472.53016818

__s__    ...       0.10000000

 ALPHA AFTER:   0.30000000000000004     
  Cycle:    127 Energy:      -472.530168  Gnorm:      0.000654  CPU:    0.755
  ** Hessian calculated **
 Line minimisation2
 ALPHA BEFORE:    1.0000000000000000     
  ** Opt : line minimisation
left   ...       0.00000000    -472.53016818
centre ...       0.10000000    -472.53016864
right  ...       0.20000000    -472.53016904

left   ...       0.00000000    -472.53016818
centre ...       0.10000000    -472.53016864
right  ...       0.20000000    -472.53016904
new    ...       0.30000000    -472.53016940

__s__    ...       0.10000000

 ALPHA AFTER:   0.30000000000000004     
  Cycle:    128 Energy:      -472.530169  Gnorm:      0.000508  CPU:    0.760
 Line minimisation2
 ALPHA BEFORE:   0.35556139380897117     
  ** Opt : line minimisation
left   ...       0.00000000    -472.53016940
centre ...       0.08889035    -472.53016965
right  ...       0.17778070    -472.53016987

left   ...       0.00000000    -472.53016940
centre ...       0.08889035    -472.53016965
right  ...       0.17778070    -472.53016987
new    ...       0.27778070    -472.53017010

__s__    ...       0.10000000

 ALPHA AFTER:   0.27778069690448559     


  **** Optimisation achieved ****


  Final energy =    -472.53017010 eV
  Final Gnorm  =       0.00037073

  Components of energy : 

--------------------------------------------------------------------------------
  Interatomic potentials     =          69.66308720 eV    
  Monopole - monopole (real) =        -259.20537015 eV    
  Monopole - monopole (recip)=        -282.98788715 eV    
  Monopole - monopole (total)=        -542.19325730 eV    
--------------------------------------------------------------------------------
  Total lattice energy       =        -472.53017010 eV    
--------------------------------------------------------------------------------
  Total lattice energy       =          -45591.9381 kJ/(mole unit cells)
--------------------------------------------------------------------------------

  Final fractional coordinates of atoms :

--------------------------------------------------------------------------------
   No.  Atomic        x           y          z          Radius
        Label       (Frac)      (Frac)     (Frac)       (Angs) 
--------------------------------------------------------------------------------
     1  O     c     0.000000    0.500000    0.250000    0.000000
     2  O     c     0.401110    0.555743    0.229251    0.000000
     3  O     c     0.220971    0.592963    0.566926    0.000000
     4  O     c     0.339962    0.079373    0.509566    0.000000
     5  O     c     0.816675    0.498810    0.722372    0.000000
     6  O     c     0.118974    0.986399    0.192649    0.000000
     7  O     c     0.938850    0.023621    0.530328    0.000000
     8  O     c     0.523285    0.080539    0.037218    0.000000
     9  O     c     0.169991    0.289673    0.879786    0.000000
    10  Sr    c     0.669986    0.289681    0.379787    0.000000
    11  Sr    c     0.595422    0.909938    0.710490    0.000000
    12  Sr    c     0.744528    0.669429    0.049089    0.000000
    13  Ti    c     0.096591    0.324836    0.655349    0.000000
    14  Ti    c     0.243371    0.254523    0.104233    0.000000
    15  Ti    c     0.169977    0.789683    0.379785    0.000000
--------------------------------------------------------------------------------

  Final Cartesian lattice vectors (Angstroms) :

        5.911625    0.063731    0.166081
        0.063731    5.207190   -0.518034
        0.332161   -1.036068    7.549473


  Final cell parameters and derivatives :

--------------------------------------------------------------------------------
       a            5.914301 Angstrom     dE/de1(xx)    -0.002398 eV/strain
       b            5.233283 Angstrom     dE/de2(yy)     0.000852 eV/strain
       c            7.627470 Angstrom     dE/de3(zz)     0.000950 eV/strain
       alpha      103.450329 Degrees      dE/de4(yz)     0.000421 eV/strain
       beta        85.994131 Degrees      dE/de5(xz)    -0.001608 eV/strain
       gamma       88.847419 Degrees      dE/de6(xy)     0.007499 eV/strain
--------------------------------------------------------------------------------

  Primitive cell volume =           228.882353 Angs**3

  Density of cell =      3.993935 g/cm**3

  Non-primitive cell volume =           228.882353 Angs**3


  Final internal derivatives :

--------------------------------------------------------------------------------
   No.  Atomic          a             b             c           Radius
        Label          (eV)          (eV)          (eV)        (eV/Angs)
--------------------------------------------------------------------------------
      1 O     c       0.000000      0.000000      0.000000      0.000000
      2 O     c      -0.000510      0.000805     -0.001754      0.000000
      3 O     c       0.001588      0.001913     -0.001247      0.000000
      4 O     c       0.000910      0.001161     -0.000246      0.000000
      5 O     c       0.002379      0.001283      0.002244      0.000000
      6 O     c      -0.003299     -0.005982      0.001072      0.000000
      7 O     c      -0.000698      0.000832      0.002146      0.000000
      8 O     c      -0.000521     -0.004634     -0.000569      0.000000
      9 O     c       0.000668     -0.000539     -0.000471      0.000000
     10 Sr    c       0.001034      0.000162      0.000338      0.000000
     11 Sr    c      -0.001193     -0.002463      0.000706      0.000000
     12 Sr    c      -0.000489      0.002919     -0.001384      0.000000
     13 Ti    c      -0.002012      0.000142      0.009654      0.000000
     14 Ti    c       0.001459     -0.002433     -0.003277      0.000000
     15 Ti    c      -0.001783     -0.000088     -0.002875      0.000000
--------------------------------------------------------------------------------
  Maximum abs         0.003299      0.005982      0.009654      0.000000
--------------------------------------------------------------------------------


  Time to end of optimisation =       0.7639 seconds

 Exiting ------OPTIONS------

  Peak dynamic memory used =       0.60 MB 


  Timing analysis for GULP :

--------------------------------------------------------------------------------
  Task / Subroutine                                          Time (Seconds)
--------------------------------------------------------------------------------
  Calculation of reciprocal space energy and derivatives          0.0969
  Calculation of real space energy and derivatives                0.6492
  Calculation of matrix inversion                                 0.0002
  Global summation overhead                                       0.0005
--------------------------------------------------------------------------------
  Total CPU time                                                  0.7639
--------------------------------------------------------------------------------


  Job Finished at 12:05.33  4th February   2020                               

