********************************************************************************
*                       GENERAL UTILITY LATTICE PROGRAM                        *
*                                 Julian Gale                                  *
*                       Curtin Institute for Computation                       *
*                           Department of Chemistry                            *
*                    Curtin University, Western Australia                      *
********************************************************************************
* Version = 5.1.1 * Last modified =  25th August 2019                          *
********************************************************************************
*  optimise     - perform optimisation run                                     *
*  conp         - constant pressure calculation                                *
*  nosymmetry   - turn off symmetry after initial structure generation         *
*  full         - generate full unit cell when symmetry is removed             *
*  conjugate    - use conjugate gradients minimiser                            *
********************************************************************************
* ASE calculation                                                              *
********************************************************************************


  Job Started  at 13:26.51 21st February   2020                               

  Number of CPUs =     1


  Total number of configurations input =      1

********************************************************************************
*  Input for Configuration =   1                                               *
********************************************************************************

  Formula = Sr3Ti3O9                                                    

  Number of irreducible atoms/shells =      15


  Total number atoms/shells =      15

  Dimensionality = 3               :  Bulk   



  Cartesian lattice vectors (Angstroms) :

       12.000000    0.000000    0.000000
        0.000000    4.000000    0.000000
        0.000000    0.000000    4.000000

  Cell parameters (Angstroms/Degrees):

  a =      12.0000    alpha =  90.0000
  b =       4.0000    beta  =  90.0000
  c =       4.0000    gamma =  90.0000

  Initial cell volume =         192.000000 Angs**3

  Temperature of configuration =  0.000     K 

  Pressure of configuration =         0.000 GPa 

  Fractional coordinates of asymmetric unit :

--------------------------------------------------------------------------------
   No.  Atomic       x           y          z         Charge      Occupancy
        Label      (Frac)      (Frac)     (Frac)        (e)         (Frac)  
--------------------------------------------------------------------------------
      1 Sr    c    0.999850    0.000360    0.999990     2.00000    1.000000    
      2 Ti    c    0.166710 *  0.500030 *  0.500050 *   4.00000    1.000000    
      3 O     c    0.000050 *  0.500680 *  0.500190 *  -2.00000    1.000000    
      4 O     c    0.166570 *  0.999870 *  0.499700 *  -2.00000    1.000000    
      5 O     c    0.166600 *  0.499850 *  0.999910 *  -2.00000    1.000000    
      6 Sr    c    0.333370 *  0.000290 *  0.999980 *   2.00000    1.000000    
      7 Ti    c    0.500060 *  0.500190 *  0.500580 *   4.00000    1.000000    
      8 O     c    0.333440 *  0.499320 *  0.500160 *  -2.00000    1.000000    
      9 O     c    0.500070 *  0.000580 *  0.500650 *  -2.00000    1.000000    
     10 O     c    0.500040 *  0.499980 *  0.999500 *  -2.00000    1.000000    
     11 Sr    c    0.666980 *  0.000650 *  0.999700 *   2.00000    1.000000    
     12 Ti    c    0.833180 *  0.500010 *  0.500730 *   4.00000    1.000000    
     13 O     c    0.666770 *  0.499940 *  0.500100 *  -2.00000    1.000000    
     14 O     c    0.833490 *  0.000170 *  0.499850 *  -2.00000    1.000000    
     15 O     c    0.833340 *  0.499170 *  0.000420 *  -2.00000    1.000000    
--------------------------------------------------------------------------------



********************************************************************************
*  General input information                                                   *
********************************************************************************

  Species output for all configurations : 

--------------------------------------------------------------------------------
  Species    Type    Atomic    Atomic    Charge       Radii (Angs)     Library
                     Number     Mass       (e)     Cova   Ionic  VDW   Symbol
--------------------------------------------------------------------------------
    Sr       Core       38      87.62   2.000000   1.120  0.000  1.670          
    Ti       Core       22      47.88   4.000000   1.470  0.000  2.190          
    O        Core        8      16.00  -2.000000   0.730  0.000  1.360          
--------------------------------------------------------------------------------


  Lattice summation method               =    Ewald          (3-D)
                                         =    Parry          (2-D)
                                         =    Saunders et al (1-D)
  Accuracy factor for lattice sums       =   12.000


  Time limit = Infinity

  Maximum range for interatomic potentials =    100000.000000 Angstroms

  General interatomic potentials :

--------------------------------------------------------------------------------
Atom  Types   Potential      Parameter       Value         Units   Cutoffs(Ang)
  1     2                                                            Min /  Max 
--------------------------------------------------------------------------------
O    c Sr   c Buckingham    Buckingham A     1952.3900    eV        0.000 10.000
                            Buckingham rho  0.33685000    Ang       
                            Buckingham C     19.220000    eV*Ang^6  
--------------------------------------------------------------------------------
O    c Ti   c Buckingham    Buckingham A     4590.7279    eV        0.000 10.000
                            Buckingham rho  0.26100000    Ang       
                            Buckingham C     0.0000000    eV*Ang^6  
--------------------------------------------------------------------------------
O    c O    c Buckingham    Buckingham A     1388.7700    eV        0.000 10.000
                            Buckingham rho  0.36262000    Ang       
                            Buckingham C     175.00000    eV*Ang^6  
--------------------------------------------------------------------------------
 Calling ------OPTIONS------

********************************************************************************
*  Output for configuration   1                                                *
********************************************************************************


  Components of energy : 

--------------------------------------------------------------------------------
  Interatomic potentials     =          59.32167851 eV    
  Monopole - monopole (real) =        -234.57426617 eV    
  Monopole - monopole (recip)=        -300.12329799 eV    
  Monopole - monopole (total)=        -534.69756416 eV    
--------------------------------------------------------------------------------
  Total lattice energy       =        -475.37588565 eV    
--------------------------------------------------------------------------------
  Total lattice energy       =          -45866.5062 kJ/(mole unit cells)
--------------------------------------------------------------------------------


  Number of variables =       48

  Maximum number of calculations  =          1000
  Maximum Hessian update interval =            10
  Maximum step size               =   0.001000000
  Maximum parameter tolerance     =   0.000010000
  Maximum function  tolerance     =   0.000010000
  Maximum gradient  tolerance     =   0.001000000
  Maximum gradient  component     =   0.010000000

  Cell parameters to be optimised using strains

  Conjugate gradient optimiser to be used

  Lower half triangular hessian to be used

  Minimiser to switch to BFGS with exact hessian
  When gradient norm is less than     0.500000

  Switch max step size to       0.10000000 when gnorm is less than    10.000000

  Start of bulk optimisation :

  Cycle:      0 Energy:      -475.375886  Gnorm:      0.419631  CPU:    0.010
  ** Hessian calculated **
 ALPHA BEFORE:    1.0000000000000000     
 XC BEFORE:   0.16670999999996639     
  ** Opt : line minimisation
left   ...       0.00000000    -475.37588565
centre ...       0.10000000    -475.41318517
right  ...       0.20000000    -475.44656065

left   ...       0.00000000    -475.37588565
centre ...       0.10000000    -475.41318517
right  ...       0.20000000    -475.44656065
new    ...       0.30000000    -475.47596812

__s__    ...       0.10000000

left   ...       0.10000000    -475.41318517
centre ...       0.20000000    -475.44656065
right  ...       0.30000000    -475.47596812
new    ...       0.40000000    -475.50136323

__s__    ...       0.10000000

left   ...       0.20000000    -475.44656065
centre ...       0.30000000    -475.47596812
right  ...       0.40000000    -475.50136323
new    ...       0.50000000    -475.52270119

__s__    ...       0.10000000

 ALPHA AFTER:   0.50000000000000000     
 XC AFTER:   0.16661039864640062     
 SANITY CHECK:   0.49999999999997768     
 DIRECTION dim            1  value   -1.9920270713153832E-004
 DIRECTION dim            2  value    3.3671695911261689E-004
 DIRECTION dim            3  value   -6.6714320099262077E-005
 DIRECTION dim            4  value   -2.1871194486647064E-004
 DIRECTION dim            5  value   -2.9057262473600697E-004
 DIRECTION dim            6  value   -1.9380885240472085E-004
 DIRECTION dim            7  value   -6.6255809546422853E-005
 DIRECTION dim            8  value    5.3482723133670173E-004
 DIRECTION dim            9  value    2.9849537378488159E-004
 DIRECTION dim           10  value   -9.6277260270358068E-005
 DIRECTION dim           11  value    5.4470668909715201E-004
 DIRECTION dim           12  value    1.0249148790264989E-004
 DIRECTION dim           13  value   -2.0060385035917282E-004
 DIRECTION dim           14  value    2.5896316392653068E-005
 DIRECTION dim           15  value    3.3485099463036008E-006
 DIRECTION dim           16  value   -2.2097915648560412E-004
 DIRECTION dim           17  value    2.3297564931354798E-004
 DIRECTION dim           18  value   -6.9680855815576958E-004
 DIRECTION dim           19  value   -2.8176290384279549E-004
 DIRECTION dim           20  value    1.0758924046345565E-003
 DIRECTION dim           21  value   -1.6650058191632438E-004
 DIRECTION dim           22  value   -2.3946196390721577E-004
 DIRECTION dim           23  value   -2.5724771933633561E-004
 DIRECTION dim           24  value   -6.6597779911075803E-004
 DIRECTION dim           25  value   -2.0864827028480238E-004
 DIRECTION dim           26  value    4.0801655398536082E-004
 DIRECTION dim           27  value    6.3093975006179909E-004
 DIRECTION dim           28  value   -4.8966097369616964E-004
 DIRECTION dim           29  value   -3.4174060206688007E-004
 DIRECTION dim           30  value    3.1381186253307501E-004
 DIRECTION dim           31  value    1.2517139154205934E-005
 DIRECTION dim           32  value    3.9762367630125962E-004
 DIRECTION dim           33  value   -7.4905520425376764E-004
 DIRECTION dim           34  value   -2.8459105501306035E-004
 DIRECTION dim           35  value    4.6113129809366443E-004
 DIRECTION dim           36  value   -1.1538038866580043E-004
 DIRECTION dim           37  value   -3.0982920798925865E-004
 DIRECTION dim           38  value    1.9378818459464607E-004
 DIRECTION dim           39  value    1.4283331562218212E-004
 DIRECTION dim           40  value   -1.6003324713462336E-004
 DIRECTION dim           41  value    1.2350188909618831E-003
 DIRECTION dim           42  value   -3.9910787885110186E-004
 DIRECTION dim           43  value   -1.1341138287438450E-002
 DIRECTION dim           44  value   -1.1342331032216418E-002
 DIRECTION dim           45  value   -1.1351343763021042E-002
 DIRECTION dim           46  value    5.1167977366926044E-007
 DIRECTION dim           47  value   -2.3979569478132708E-007
 DIRECTION dim           48  value   -3.0062717776033499E-007
  Cycle:      1 Energy:      -475.522701  Gnorm:      0.205207  CPU:    0.024
 ALPHA BEFORE:    1.0459011235009852     
 XC BEFORE:   0.16661039864640062     
  ** Opt : line minimisation
left   ...       0.00000000    -475.52270119
centre ...       0.10000000    -475.53145810
right  ...       0.20000000    -475.53927204

left   ...       0.00000000    -475.52270119
centre ...       0.10000000    -475.53145810
right  ...       0.20000000    -475.53927204
new    ...       0.30000000    -475.54613802

__s__    ...       0.10000000

left   ...       0.10000000    -475.53145810
centre ...       0.20000000    -475.53927204
right  ...       0.30000000    -475.54613802
new    ...       0.40000000    -475.55205103

__s__    ...       0.10000000

left   ...       0.20000000    -475.53927204
centre ...       0.30000000    -475.54613802
right  ...       0.40000000    -475.55205103
new    ...       0.50000000    -475.55700606

__s__    ...       0.10000000

 ALPHA AFTER:   0.50000000000000000     
 XC AFTER:   0.16656213035714995     
 SANITY CHECK:   0.49999999999936279     
 DIRECTION dim            1  value   -9.6536578501461374E-005
 DIRECTION dim            2  value    1.6485867324698793E-004
 DIRECTION dim            3  value   -2.9648020671372391E-005
 DIRECTION dim            4  value   -9.7960387102395552E-005
 DIRECTION dim            5  value   -1.6204134135496288E-004
 DIRECTION dim            6  value   -1.0144812605352262E-004
 DIRECTION dim            7  value   -2.5487547213414493E-005
 DIRECTION dim            8  value    2.4052026975722435E-004
 DIRECTION dim            9  value    1.4364603338124139E-004
 DIRECTION dim           10  value   -4.0495247540256228E-005
 DIRECTION dim           11  value    2.5210478246354324E-004
 DIRECTION dim           12  value    3.6790002833016460E-005
 DIRECTION dim           13  value   -9.2923553288526558E-005
 DIRECTION dim           14  value    3.6844532527369425E-005
 DIRECTION dim           15  value    7.2421493584624861E-006
 DIRECTION dim           16  value   -1.0464111653750136E-004
 DIRECTION dim           17  value    7.8800523012212184E-005
 DIRECTION dim           18  value   -2.8484323601922360E-004
 DIRECTION dim           19  value   -1.2603707169688336E-004
 DIRECTION dim           20  value    5.1738054261675297E-004
 DIRECTION dim           21  value   -8.7116549293188650E-005
 DIRECTION dim           22  value   -1.0853611869695048E-004
 DIRECTION dim           23  value   -1.0515511201170661E-004
 DIRECTION dim           24  value   -3.3265986739304868E-004
 DIRECTION dim           25  value   -9.3559199242744892E-005
 DIRECTION dim           26  value    1.8796665676795577E-004
 DIRECTION dim           27  value    2.2710787046531462E-004
 DIRECTION dim           28  value   -2.3049914056443919E-004
 DIRECTION dim           29  value   -1.4345265197158446E-004
 DIRECTION dim           30  value    1.4544331936898531E-004
 DIRECTION dim           31  value    7.5991654716518785E-007
 DIRECTION dim           32  value    1.7118511977286285E-004
 DIRECTION dim           33  value   -3.6903118831433599E-004
 DIRECTION dim           34  value   -1.2382965024907935E-004
 DIRECTION dim           35  value    2.0748452347636224E-004
 DIRECTION dim           36  value   -5.6448103416851796E-005
 DIRECTION dim           37  value   -1.5292699378756876E-004
 DIRECTION dim           38  value    9.5934334473467579E-005
 DIRECTION dim           39  value    6.8846970687051596E-005
 DIRECTION dim           40  value   -7.7967664144550533E-005
 DIRECTION dim           41  value    5.9244208112850495E-004
 DIRECTION dim           42  value   -2.1883521101195231E-004
 DIRECTION dim           43  value   -5.4268278389960154E-003
 DIRECTION dim           44  value   -5.4268817427170317E-003
 DIRECTION dim           45  value   -5.4240342236984394E-003
 DIRECTION dim           46  value    1.4501307237927666E-007
 DIRECTION dim           47  value    1.7489357673741458E-008
 DIRECTION dim           48  value    4.9500736961944702E-008
  Cycle:      2 Energy:      -475.557006  Gnorm:      0.099295  CPU:    0.030
 ALPHA BEFORE:    1.0678579801851558     
 XC BEFORE:   0.16656213035714995     
  ** Opt : line minimisation
left   ...       0.00000000    -475.55700606
centre ...       0.10000000    -475.55899584
right  ...       0.20000000    -475.56077391

left   ...       0.00000000    -475.55700606
centre ...       0.10000000    -475.55899584
right  ...       0.20000000    -475.56077391
new    ...       0.30000000    -475.56233974

__s__    ...       0.10000000

left   ...       0.10000000    -475.55899584
centre ...       0.20000000    -475.56077391
right  ...       0.30000000    -475.56233974
new    ...       0.40000000    -475.56369281

__s__    ...       0.10000000

left   ...       0.20000000    -475.56077391
centre ...       0.30000000    -475.56233974
right  ...       0.40000000    -475.56369281
new    ...       0.50000000    -475.56483260

__s__    ...       0.10000000

 ALPHA AFTER:   0.50000000000000000     
 XC AFTER:   0.16653907427477901     
 SANITY CHECK:   0.50000000000025435     
 DIRECTION dim            1  value   -4.6112164741850392E-005
 DIRECTION dim            2  value    7.9856789790504822E-005
 DIRECTION dim            3  value   -1.2363440411152463E-005
 DIRECTION dim            4  value   -4.2464723528740588E-005
 DIRECTION dim            5  value   -9.1691894877616033E-005
 DIRECTION dim            6  value   -5.2686907512518574E-005
 DIRECTION dim            7  value   -8.1782445217448324E-006
 DIRECTION dim            8  value    1.0435723394122618E-004
 DIRECTION dim            9  value    6.9024113665817029E-005
 DIRECTION dim           10  value   -1.5670978460980469E-005
 DIRECTION dim           11  value    1.1357031102840583E-004
 DIRECTION dim           12  value    1.0744266751257118E-005
 DIRECTION dim           13  value   -4.1322083580875377E-005
 DIRECTION dim           14  value    3.4619597935781598E-005
 DIRECTION dim           15  value    5.4998899375139634E-006
 DIRECTION dim           16  value   -4.8289931477110055E-005
 DIRECTION dim           17  value    1.7071463675223057E-005
 DIRECTION dim           18  value   -1.0466191881805035E-004
 DIRECTION dim           19  value   -5.4141080781350808E-005
 DIRECTION dim           20  value    2.4571563542152727E-004
 DIRECTION dim           21  value   -4.4354731301214419E-005
 DIRECTION dim           22  value   -4.7313177662127562E-005
 DIRECTION dim           23  value   -3.9783857381015761E-005
 DIRECTION dim           24  value   -1.6349527266110002E-004
 DIRECTION dim           25  value   -4.0117506436154700E-005
 DIRECTION dim           26  value    8.3768501648200994E-005
 DIRECTION dim           27  value    6.4706934882310929E-005
 DIRECTION dim           28  value   -1.0563756874920602E-004
 DIRECTION dim           29  value   -5.2527834222320069E-005
 DIRECTION dim           30  value    6.3490982706626269E-005
 DIRECTION dim           31  value   -2.9005402758223120E-006
 DIRECTION dim           32  value    6.8563594478625927E-005
 DIRECTION dim           33  value   -1.8132007215155419E-004
 DIRECTION dim           34  value   -5.0833902458597881E-005
 DIRECTION dim           35  value    8.8767575524264827E-005
 DIRECTION dim           36  value   -2.5823570702383690E-005
 DIRECTION dim           37  value   -7.5425868481223763E-005
 DIRECTION dim           38  value    4.6317805944973679E-005
 DIRECTION dim           39  value    3.3688933109311844E-005
 DIRECTION dim           40  value   -3.7856356468783438E-005
 DIRECTION dim           41  value    2.7992881816393881E-004
 DIRECTION dim           42  value   -1.2008164056453865E-004
 DIRECTION dim           43  value   -2.5428294156143224E-003
 DIRECTION dim           44  value   -2.5424047812350700E-003
 DIRECTION dim           45  value   -2.5384098347806363E-003
 DIRECTION dim           46  value   -1.6047228443623029E-007
 DIRECTION dim           47  value    8.7753192511083984E-008
 DIRECTION dim           48  value    1.3322373907758841E-007
  Cycle:      3 Energy:      -475.564833  Gnorm:      0.048899  CPU:    0.035
 ALPHA BEFORE:    1.0310943868758815     
 XC BEFORE:   0.16653907427477901     
  ** Opt : line minimisation
left   ...       0.00000000    -475.56483260
centre ...       0.10000000    -475.56530834
right  ...       0.20000000    -475.56573376

left   ...       0.00000000    -475.56483260
centre ...       0.10000000    -475.56530834
right  ...       0.20000000    -475.56573376
new    ...       0.30000000    -475.56610878

__s__    ...       0.10000000

left   ...       0.10000000    -475.56530834
centre ...       0.20000000    -475.56573376
right  ...       0.30000000    -475.56610878
new    ...       0.40000000    -475.56643336

__s__    ...       0.10000000

left   ...       0.20000000    -475.56573376
centre ...       0.30000000    -475.56610878
right  ...       0.40000000    -475.56643336
new    ...       0.50000000    -475.56670742

__s__    ...       0.10000000

 ALPHA AFTER:   0.50000000000000000     
 XC AFTER:   0.16652779603556772     
 SANITY CHECK:   0.50000000000089495     
 DIRECTION dim            1  value   -2.2556478422545858E-005
 DIRECTION dim            2  value    3.9367953676004640E-005
 DIRECTION dim            3  value   -5.7574165242415792E-006
 DIRECTION dim            4  value   -2.0706744421946904E-005
 DIRECTION dim            5  value   -4.7376873109594818E-005
 DIRECTION dim            6  value   -2.6023422552192053E-005
 DIRECTION dim            7  value   -3.5800372944023949E-006
 DIRECTION dim            8  value    5.0685536688887464E-005
 DIRECTION dim            9  value    3.4526570947851464E-005
 DIRECTION dim           10  value   -7.3185888871740065E-006
 DIRECTION dim           11  value    5.5261603926947763E-005
 DIRECTION dim           12  value    5.2231004701679957E-006
 DIRECTION dim           13  value   -1.9552469269585042E-005
 DIRECTION dim           14  value    2.0435750330979989E-005
 DIRECTION dim           15  value    1.9565977538824277E-006
 DIRECTION dim           16  value   -2.3288453923946009E-005
 DIRECTION dim           17  value    6.3857246452968775E-006
 DIRECTION dim           18  value   -4.8418991852323007E-005
 DIRECTION dim           19  value   -2.6082987380237954E-005
 DIRECTION dim           20  value    1.2101157240284958E-004
 DIRECTION dim           21  value   -2.1153754967016145E-005
 DIRECTION dim           22  value   -2.2681342048120258E-005
 DIRECTION dim           23  value   -1.9352446115143755E-005
 DIRECTION dim           24  value   -7.9424026114860549E-005
 DIRECTION dim           25  value   -1.9150699964557752E-005
 DIRECTION dim           26  value    4.0470686822850679E-005
 DIRECTION dim           27  value    3.0099761629022370E-005
 DIRECTION dim           28  value   -5.0974641549676858E-005
 DIRECTION dim           29  value   -2.2196309220406627E-005
 DIRECTION dim           30  value    2.9148558521026736E-005
 DIRECTION dim           31  value   -1.7604182679982527E-006
 DIRECTION dim           32  value    3.2059526987419928E-005
 DIRECTION dim           33  value   -9.0379660611219641E-005
 DIRECTION dim           34  value   -2.4173897634842630E-005
 DIRECTION dim           35  value    4.1976051570655345E-005
 DIRECTION dim           36  value   -1.1452105312105555E-005
 DIRECTION dim           37  value   -3.7648974304570700E-005
 DIRECTION dim           38  value    2.2166995170651629E-005
 DIRECTION dim           39  value    1.7287204679867553E-005
 DIRECTION dim           40  value   -1.8825749804212788E-005
 DIRECTION dim           41  value    1.3712956137831010E-004
 DIRECTION dim           42  value   -6.0592385935019537E-005
 DIRECTION dim           43  value   -1.2327126879132769E-003
 DIRECTION dim           44  value   -1.2323280520848546E-003
 DIRECTION dim           45  value   -1.2312848731000888E-003
 DIRECTION dim           46  value   -2.1759839059557917E-007
 DIRECTION dim           47  value    5.3111845326104680E-008
 DIRECTION dim           48  value    6.6290094107681462E-008
  Cycle:      4 Energy:      -475.566707  Gnorm:      0.024276  CPU:    0.039
 ALPHA BEFORE:    1.0144831984209051     
 XC BEFORE:   0.16652779603556772     
  ** Opt : line minimisation
left   ...       0.00000000    -475.56670742
centre ...       0.10000000    -475.56682389
right  ...       0.20000000    -475.56692808

left   ...       0.00000000    -475.56670742
centre ...       0.10000000    -475.56682389
right  ...       0.20000000    -475.56692808
new    ...       0.30000000    -475.56701996

__s__    ...       0.10000000

left   ...       0.10000000    -475.56682389
centre ...       0.20000000    -475.56692808
right  ...       0.30000000    -475.56701996
new    ...       0.40000000    -475.56709954

__s__    ...       0.10000000

left   ...       0.20000000    -475.56692808
centre ...       0.30000000    -475.56701996
right  ...       0.40000000    -475.56709954
new    ...       0.50000000    -475.56716681

__s__    ...       0.10000000

 ALPHA AFTER:   0.50000000000000000     
 XC AFTER:   0.16652221302923048     
 SANITY CHECK:   0.49999999999642281     
 DIRECTION dim            1  value   -1.1166012674559361E-005
 DIRECTION dim            2  value    1.9627871248864432E-005
 DIRECTION dim            3  value   -2.7882748996469936E-006
 DIRECTION dim            4  value   -1.0124517215603486E-005
 DIRECTION dim            5  value   -2.4049898380770708E-005
 DIRECTION dim            6  value   -1.3034922461034105E-005
 DIRECTION dim            7  value   -1.6228679875713167E-006
 DIRECTION dim            8  value    2.4909643247915004E-005
 DIRECTION dim            9  value    1.7160501496526040E-005
 DIRECTION dim           10  value   -3.4927479543176036E-006
 DIRECTION dim           11  value    2.7278257756081058E-005
 DIRECTION dim           12  value    2.3952802949530142E-006
 DIRECTION dim           13  value   -9.5428493461333852E-006
 DIRECTION dim           14  value    1.0883370850894375E-005
 DIRECTION dim           15  value    1.0112000714522124E-006
 DIRECTION dim           16  value   -1.1460674942654108E-005
 DIRECTION dim           17  value    2.5404143561216549E-006
 DIRECTION dim           18  value   -2.2938773049403025E-005
 DIRECTION dim           19  value   -1.2730190074795550E-005
 DIRECTION dim           20  value    6.0118364852829890E-005
 DIRECTION dim           21  value   -1.0502391861991402E-005
 DIRECTION dim           22  value   -1.1075908659001389E-005
 DIRECTION dim           23  value   -9.2890262469608497E-006
 DIRECTION dim           24  value   -3.9381461707467717E-005
 DIRECTION dim           25  value   -9.3286253243962758E-006
 DIRECTION dim           26  value    1.9973258510824777E-005
 DIRECTION dim           27  value    1.3767832398316948E-005
 DIRECTION dim           28  value   -2.5077723284051284E-005
 DIRECTION dim           29  value   -1.0312906257177742E-005
 DIRECTION dim           30  value    1.4210122909537936E-005
 DIRECTION dim           31  value   -9.5531483050486466E-007
 DIRECTION dim           32  value    1.5445036548879363E-005
 DIRECTION dim           33  value   -4.5121860455750404E-005
 DIRECTION dim           34  value   -1.1712305828604888E-005
 DIRECTION dim           35  value    2.0480980867845507E-005
 DIRECTION dim           36  value   -5.5436503892995010E-006
 DIRECTION dim           37  value   -1.8761533175936543E-005
 DIRECTION dim           38  value    1.0960147824395818E-005
 DIRECTION dim           39  value    8.6459517572294783E-006
 DIRECTION dim           40  value   -9.3394389744431245E-006
 DIRECTION dim           41  value    6.7936740553981007E-005
 DIRECTION dim           42  value   -3.0637662169938840E-005
 DIRECTION dim           43  value   -6.0755587698443989E-004
 DIRECTION dim           44  value   -6.0734645708243661E-004
 DIRECTION dim           45  value   -6.0674017114337717E-004
 DIRECTION dim           46  value   -1.2981630339010678E-007
 DIRECTION dim           47  value    3.8005035097404775E-008
 DIRECTION dim           48  value    2.7355637328195254E-008
  Cycle:      5 Energy:      -475.567167  Gnorm:      0.012096  CPU:    0.043
 ALPHA BEFORE:    1.0070137765818266     
 XC BEFORE:   0.16652221302923048     
  ** Opt : line minimisation
left   ...       0.00000000    -475.56716681
centre ...       0.10000000    -475.56719563
right  ...       0.20000000    -475.56722142

left   ...       0.00000000    -475.56716681
centre ...       0.10000000    -475.56719563
right  ...       0.20000000    -475.56722142
new    ...       0.30000000    -475.56724417

__s__    ...       0.10000000

left   ...       0.10000000    -475.56719563
centre ...       0.20000000    -475.56722142
right  ...       0.30000000    -475.56724417
new    ...       0.40000000    -475.56726388

__s__    ...       0.10000000

left   ...       0.20000000    -475.56722142
centre ...       0.30000000    -475.56724417
right  ...       0.40000000    -475.56726388
new    ...       0.50000000    -475.56728054

__s__    ...       0.10000000

 ALPHA AFTER:   0.50000000000000000     
 XC AFTER:   0.16651943506190875     
 SANITY CHECK:   0.49999999999191430     
 DIRECTION dim            1  value   -5.5559346435540028E-006
 DIRECTION dim            2  value    9.7909306146438950E-006
 DIRECTION dim            3  value   -1.3770833395921437E-006
 DIRECTION dim            4  value   -5.0316512395239986E-006
 DIRECTION dim            5  value   -1.2106806483851431E-005
 DIRECTION dim            6  value   -6.5024193774191332E-006
 DIRECTION dim            7  value   -7.8297364825340132E-007
 DIRECTION dim            8  value    1.2378967699573530E-005
 DIRECTION dim            9  value    8.5760420597204294E-006
 DIRECTION dim           10  value   -1.7177277489270097E-006
 DIRECTION dim           11  value    1.3563616092028507E-005
 DIRECTION dim           12  value    1.1853273969571315E-006
 DIRECTION dim           13  value   -4.7136547868296387E-006
 DIRECTION dim           14  value    5.6064366307040914E-006
 DIRECTION dim           15  value    4.7009544559614195E-007
 DIRECTION dim           16  value   -5.6853850982601752E-006
 DIRECTION dim           17  value    1.1581721835160319E-006
 DIRECTION dim           18  value   -1.1257315800903139E-005
 DIRECTION dim           19  value   -6.3114310480326085E-006
 DIRECTION dim           20  value    2.9968232279504877E-005
 DIRECTION dim           21  value   -5.1995454983798820E-006
 DIRECTION dim           22  value   -5.4852035842444426E-006
 DIRECTION dim           23  value   -4.6090724042056553E-006
 DIRECTION dim           24  value   -1.9565628828774116E-005
 DIRECTION dim           25  value   -4.6158065557871444E-006
 DIRECTION dim           26  value    9.9206804846728555E-006
 DIRECTION dim           27  value    6.7611332856416832E-006
 DIRECTION dim           28  value   -1.2439872396586328E-005
 DIRECTION dim           29  value   -4.9478234364711081E-006
 DIRECTION dim           30  value    6.9765966012953173E-006
 DIRECTION dim           31  value   -4.9187482780362172E-007
 DIRECTION dim           32  value    7.6035071558454167E-006
 DIRECTION dim           33  value   -2.2554624672931222E-005
 DIRECTION dim           34  value   -5.7895726433364538E-006
 DIRECTION dim           35  value    1.0117495055184861E-005
 DIRECTION dim           36  value   -2.6970466441488808E-006
 DIRECTION dim           37  value   -9.3754247327610934E-006
 DIRECTION dim           38  value    5.4279071910130533E-006
 DIRECTION dim           39  value    4.3434857954671957E-006
 DIRECTION dim           40  value   -4.6615073802632395E-006
 DIRECTION dim           41  value    3.3819148464039764E-005
 DIRECTION dim           42  value   -1.5354882325106002E-005
 DIRECTION dim           43  value   -3.0164013808249335E-004
 DIRECTION dim           44  value   -3.0152773727042467E-004
 DIRECTION dim           45  value   -3.0126872648265918E-004
 DIRECTION dim           46  value   -7.0268058232762354E-008
 DIRECTION dim           47  value    2.0146002024618835E-008
 DIRECTION dim           48  value    1.2316975020001868E-008
  Cycle:      6 Energy:      -475.567281  Gnorm:      0.006038  CPU:    0.047
 ALPHA BEFORE:    1.0034533428949288     
 XC BEFORE:   0.16651943506190875     
  ** Opt : line minimisation
left   ...       0.00000000    -475.56728054
centre ...       0.10000000    -475.56728771
right  ...       0.20000000    -475.56729413

left   ...       0.00000000    -475.56728054
centre ...       0.10000000    -475.56728771
right  ...       0.20000000    -475.56729413
new    ...       0.30000000    -475.56729979

__s__    ...       0.10000000

left   ...       0.10000000    -475.56728771
centre ...       0.20000000    -475.56729413
right  ...       0.30000000    -475.56729979
new    ...       0.40000000    -475.56730469

__s__    ...       0.10000000

left   ...       0.20000000    -475.56729413
centre ...       0.30000000    -475.56729979
right  ...       0.40000000    -475.56730469
new    ...       0.50000000    -475.56730884

__s__    ...       0.10000000

 ALPHA AFTER:   0.50000000000000000     
 XC AFTER:   0.16651804989665722     
 SANITY CHECK:   0.49999999998777289     
 DIRECTION dim            1  value   -2.7703305031223871E-006
 DIRECTION dim            2  value    4.8925605613013090E-006
 DIRECTION dim            3  value   -6.7735175913492884E-007
 DIRECTION dim            4  value   -2.5027379536568335E-006
 DIRECTION dim            5  value   -6.0730984236463109E-006
 DIRECTION dim            6  value   -3.2484453958285318E-006
 DIRECTION dim            7  value   -3.8203187185301988E-007
 DIRECTION dim            8  value    6.1675236510097885E-006
 DIRECTION dim            9  value    4.2864385393223616E-006
 DIRECTION dim           10  value   -8.4950957910853266E-007
 DIRECTION dim           11  value    6.7638094025786924E-006
 DIRECTION dim           12  value    5.8666383223424285E-007
 DIRECTION dim           13  value   -2.3415278597046110E-006
 DIRECTION dim           14  value    2.8444823592546504E-006
 DIRECTION dim           15  value    2.3771131761115890E-007
 DIRECTION dim           16  value   -2.8309821600721022E-006
 DIRECTION dim           17  value    5.4422110767981597E-007
 DIRECTION dim           18  value   -5.5542301314444622E-006
 DIRECTION dim           19  value   -3.1385037747620895E-006
 DIRECTION dim           20  value    1.4964195216943426E-005
 DIRECTION dim           21  value   -2.5898514443665747E-006
 DIRECTION dim           22  value   -2.7275108069537466E-006
 DIRECTION dim           23  value   -2.2845723743543855E-006
 DIRECTION dim           24  value   -9.7573657127257667E-006
 DIRECTION dim           25  value   -2.2939646743790535E-006
 DIRECTION dim           26  value    4.9472437726036294E-006
 DIRECTION dim           27  value    3.3207265169506093E-006
 DIRECTION dim           28  value   -6.1963037410480448E-006
 DIRECTION dim           29  value   -2.4270819841710866E-006
 DIRECTION dim           30  value    3.4686241856745085E-006
 DIRECTION dim           31  value   -2.5023469507562090E-007
 DIRECTION dim           32  value    3.7708012326625371E-006
 DIRECTION dim           33  value   -1.1269339034500635E-005
 DIRECTION dim           34  value   -2.8736795083676829E-006
 DIRECTION dim           35  value    5.0312201476034997E-006
 DIRECTION dim           36  value   -1.3330303609060104E-006
 DIRECTION dim           37  value   -4.6830729701796837E-006
 DIRECTION dim           38  value    2.7071188750113374E-006
 DIRECTION dim           39  value    2.1758242829120565E-006
 DIRECTION dim           40  value   -2.3253126443556481E-006
 DIRECTION dim           41  value    1.6874882307970013E-005
 DIRECTION dim           42  value   -7.6915999123266124E-006
 DIRECTION dim           43  value   -1.5030018691847277E-004
 DIRECTION dim           44  value   -1.5024291011408626E-004
 DIRECTION dim           45  value   -1.5010969950722384E-004
 DIRECTION dim           46  value   -3.8673479048894053E-008
 DIRECTION dim           47  value    1.1446213736328789E-008
 DIRECTION dim           48  value    6.0918898243150118E-009
  Cycle:      7 Energy:      -475.567309  Gnorm:      0.003016  CPU:    0.051
 ALPHA BEFORE:    1.0017149619779990     
 XC BEFORE:   0.16651804989665722     
  ** Opt : line minimisation
left   ...       0.00000000    -475.56730884
centre ...       0.10000000    -475.56731063
right  ...       0.20000000    -475.56731223

left   ...       0.00000000    -475.56730884
centre ...       0.10000000    -475.56731063
right  ...       0.20000000    -475.56731223
new    ...       0.30000000    -475.56731364

__s__    ...       0.10000000

left   ...       0.10000000    -475.56731063
centre ...       0.20000000    -475.56731223
right  ...       0.30000000    -475.56731364
new    ...       0.40000000    -475.56731486

__s__    ...       0.10000000

left   ...       0.20000000    -475.56731223
centre ...       0.30000000    -475.56731364
right  ...       0.40000000    -475.56731486
new    ...       0.50000000    -475.56731590

__s__    ...       0.10000000

 ALPHA AFTER:   0.50000000000000000     
 XC AFTER:   0.16651735799925438     
 SANITY CHECK:   0.49999999998580558     
 DIRECTION dim            1  value   -1.3837948057264617E-006
 DIRECTION dim            2  value    2.4443730627571532E-006
 DIRECTION dim            3  value   -3.3753479092971765E-007
 DIRECTION dim            4  value   -1.2495700255353929E-006
 DIRECTION dim            5  value   -3.0421664121185054E-006
 DIRECTION dim            6  value   -1.6235477591961687E-006
 DIRECTION dim            7  value   -1.8929225439805582E-007
 DIRECTION dim            8  value    3.0784456084721365E-006
 DIRECTION dim            9  value    2.1427680525882138E-006
 DIRECTION dim           10  value   -4.2301493766005174E-007
 DIRECTION dim           11  value    3.3768915644694237E-006
 DIRECTION dim           12  value    2.9262068192009797E-007
 DIRECTION dim           13  value   -1.1678186701786128E-006
 DIRECTION dim           14  value    1.4314805294052908E-006
 DIRECTION dim           15  value    1.1700849299003249E-007
 DIRECTION dim           16  value   -1.4130465661611844E-006
 DIRECTION dim           17  value    2.6450458957416937E-007
 DIRECTION dim           18  value   -2.7638467759776972E-006
 DIRECTION dim           19  value   -1.5658747253404230E-006
 DIRECTION dim           20  value    7.4761694709162001E-006
 DIRECTION dim           21  value   -1.2919754607233803E-006
 DIRECTION dim           22  value   -1.3605644503710372E-006
 DIRECTION dim           23  value   -1.1405420701173160E-006
 DIRECTION dim           24  value   -4.8713149434419580E-006
 DIRECTION dim           25  value   -1.1440494928938677E-006
 DIRECTION dim           26  value    2.4692790879543459E-006
 DIRECTION dim           27  value    1.6524317190350081E-006
 DIRECTION dim           28  value   -3.0921585976397634E-006
 DIRECTION dim           29  value   -1.2012497497067666E-006
 DIRECTION dim           30  value    1.7268664137486079E-006
 DIRECTION dim           31  value   -1.2567271390144077E-007
 DIRECTION dim           32  value    1.8768708253604891E-006
 DIRECTION dim           33  value   -5.6343038748648485E-006
 DIRECTION dim           34  value   -1.4328775828373377E-006
 DIRECTION dim           35  value    2.5076811088622027E-006
 DIRECTION dim           36  value   -6.6220109290957609E-007
 DIRECTION dim           37  value   -2.3413561425111430E-006
 DIRECTION dim           38  value    1.3494620142148554E-006
 DIRECTION dim           39  value    1.0889592070169007E-006
 DIRECTION dim           40  value   -1.1623171001151360E-006
 DIRECTION dim           41  value    8.4277798862799919E-006
 DIRECTION dim           42  value   -3.8481016134781843E-006
 DIRECTION dim           43  value   -7.5020194939992937E-005
 DIRECTION dim           44  value   -7.4991159687876530E-005
 DIRECTION dim           45  value   -7.4926901674809992E-005
 DIRECTION dim           46  value   -1.9799185657028310E-008
 DIRECTION dim           47  value    5.8594179282967194E-009
 DIRECTION dim           48  value    2.9598012268515164E-009
  Cycle:      8 Energy:      -475.567316  Gnorm:      0.001508  CPU:    0.055
 ALPHA BEFORE:    1.0008531826643732     
 XC BEFORE:   0.16651735799925438     
  ** Opt : line minimisation
left   ...       0.00000000    -475.56731590
centre ...       0.10000000    -475.56731634
right  ...       0.20000000    -475.56731674

left   ...       0.00000000    -475.56731590
centre ...       0.10000000    -475.56731634
right  ...       0.20000000    -475.56731674
new    ...       0.30000000    -475.56731709

__s__    ...       0.10000000

 ALPHA AFTER:   0.30000000000000004     
 XC AFTER:   0.16651715055781419     
 SANITY CHECK:   0.29999999998868410     
 DIRECTION dim            1  value   -6.9147146733282996E-007
 DIRECTION dim            2  value    1.2220465210848530E-006
 DIRECTION dim            3  value   -1.6839133552157397E-007
 DIRECTION dim            4  value   -6.2404914800782983E-007
 DIRECTION dim            5  value   -1.5222275385245687E-006
 DIRECTION dim            6  value   -8.1174149687048651E-007
 DIRECTION dim            7  value   -9.4089002120075149E-008
 DIRECTION dim            8  value    1.5379850418648308E-006
 DIRECTION dim            9  value    1.0711124856719350E-006
 DIRECTION dim           10  value   -2.1095326232081206E-007
 DIRECTION dim           11  value    1.6873988362156082E-006
 DIRECTION dim           12  value    1.4570507069739283E-007
 DIRECTION dim           13  value   -5.8305366292730448E-007
 DIRECTION dim           14  value    7.1821008158610678E-007
 DIRECTION dim           15  value    5.8523438834845719E-008
 DIRECTION dim           16  value   -7.0585225931592976E-007
 DIRECTION dim           17  value    1.3027567496376026E-007
 DIRECTION dim           18  value   -1.3777491985877453E-006
 DIRECTION dim           19  value   -7.8194192143863115E-007
 DIRECTION dim           20  value    3.7368839829155379E-006
 DIRECTION dim           21  value   -6.4554410083433539E-007
 DIRECTION dim           22  value   -6.7938258864168945E-007
 DIRECTION dim           23  value   -5.6906328211005053E-007
 DIRECTION dim           24  value   -2.4342236407807803E-006
 DIRECTION dim           25  value   -5.7119375332009007E-007
 DIRECTION dim           26  value    1.2338809418035613E-006
 DIRECTION dim           27  value    8.2256361132060546E-007
 DIRECTION dim           28  value   -1.5446341699871114E-006
 DIRECTION dim           29  value   -5.9776870806661629E-007
 DIRECTION dim           30  value    8.6209600609685704E-007
 DIRECTION dim           31  value   -6.3103321847691878E-008
 DIRECTION dim           32  value    9.3655648250669391E-007
 DIRECTION dim           33  value   -2.8169243946078946E-006
 DIRECTION dim           34  value   -7.1522445234418678E-007
 DIRECTION dim           35  value    1.2521919260102510E-006
 DIRECTION dim           36  value   -3.3030079792235378E-007
 DIRECTION dim           37  value   -1.1705034120830604E-006
 DIRECTION dim           38  value    6.7426093247535891E-007
 DIRECTION dim           39  value    5.4458763994473216E-007
 DIRECTION dim           40  value   -5.8093823863021594E-007
 DIRECTION dim           41  value    4.2117925671309927E-006
 DIRECTION dim           42  value   -1.9251028738058681E-006
 DIRECTION dim           43  value   -3.7478022443763918E-005
 DIRECTION dim           44  value   -3.7463431597181649E-005
 DIRECTION dim           45  value   -3.7431139327418365E-005
 DIRECTION dim           46  value   -9.9952049866346823E-009
 DIRECTION dim           47  value    2.9791086870593715E-009
 DIRECTION dim           48  value    1.4520950070043123E-009
  Cycle:      9 Energy:      -475.567317  Gnorm:      0.001055  CPU:    0.058
 ALPHA BEFORE:   0.42868448178849217     
 XC BEFORE:   0.16651715055781419     
  ** Opt : line minimisation
left   ...       0.00000000    -475.56731709
centre ...       0.10000000    -475.56731731
right  ...       0.20000000    -475.56731751

left   ...       0.00000000    -475.56731709
centre ...       0.10000000    -475.56731731
right  ...       0.20000000    -475.56731751
new    ...       0.30000000    -475.56731768

__s__    ...       0.10000000

 ALPHA AFTER:   0.30000000000000004     
 XC AFTER:   0.16651700537609362     
 SANITY CHECK:   0.29999999998857230     
 DIRECTION dim            1  value   -4.8393906855915184E-007
 DIRECTION dim            2  value    8.5536220085272352E-007
 DIRECTION dim            3  value   -1.1780314203703286E-007
 DIRECTION dim            4  value   -4.3673086807360403E-007
 DIRECTION dim            5  value   -1.0658250845654557E-006
 DIRECTION dim            6  value   -5.6815849975982173E-007
 DIRECTION dim            7  value   -6.5768969597346367E-008
 DIRECTION dim            8  value    1.0763492016509878E-006
 DIRECTION dim            9  value    7.4977454101707066E-007
 DIRECTION dim           10  value   -1.4757430700235710E-007
 DIRECTION dim           11  value    1.1809473392537045E-006
 DIRECTION dim           12  value    1.0198225729520858E-007
 DIRECTION dim           13  value   -4.0794769817205384E-007
 DIRECTION dim           14  value    5.0326056735720905E-007
 DIRECTION dim           15  value    4.0872705933403600E-008
 DIRECTION dim           16  value   -4.9394946326499300E-007
 DIRECTION dim           17  value    9.0839390702076409E-008
 DIRECTION dim           18  value   -9.6373786735966778E-007
 DIRECTION dim           19  value   -5.4718310334810157E-007
 DIRECTION dim           20  value    2.6155422912034963E-006
 DIRECTION dim           21  value   -4.5169898810701884E-007
 DIRECTION dim           22  value   -4.7539709959452511E-007
 DIRECTION dim           23  value   -3.9823870520700682E-007
 DIRECTION dim           24  value   -1.7035312411667272E-006
 DIRECTION dim           25  value   -3.9968006083183156E-007
 DIRECTION dim           26  value    8.6352266661071947E-007
 DIRECTION dim           27  value    5.7545954324071737E-007
 DIRECTION dim           28  value   -1.0809267623305211E-006
 DIRECTION dim           29  value   -4.1779244345323659E-007
 DIRECTION dim           30  value    6.0308677224650668E-007
 DIRECTION dim           31  value   -4.4203526461548826E-008
 DIRECTION dim           32  value    6.5520549247439775E-007
 DIRECTION dim           33  value   -1.9718231023322551E-006
 DIRECTION dim           34  value   -5.0044272126688936E-007
 DIRECTION dim           35  value    8.7614948227537157E-007
 DIRECTION dim           36  value   -2.3095916546008904E-007
 DIRECTION dim           37  value   -8.1931911166361909E-007
 DIRECTION dim           38  value    4.7180865303772550E-007
 DIRECTION dim           39  value    3.8128627499189906E-007
 DIRECTION dim           40  value   -4.0661290036222766E-007
 DIRECTION dim           41  value    2.9477758382433058E-006
 DIRECTION dim           42  value   -1.3476666696595966E-006
 DIRECTION dim           43  value   -2.6227623808429586E-005
 DIRECTION dim           44  value   -2.6217386976809449E-005
 DIRECTION dim           45  value   -2.6194915695830170E-005
 DIRECTION dim           46  value   -7.0228493157834450E-009
 DIRECTION dim           47  value    2.0939020446445347E-009
 DIRECTION dim           48  value    1.0108136023813244E-009
  Cycle:     10 Energy:      -475.567318  Gnorm:      0.000739  CPU:    0.060
  ** Hessian calculated **
 ALPHA BEFORE:    1.0000000000000000     
 XC BEFORE:   0.16651700537609362     
  ** Opt : line minimisation
left   ...       0.00000000    -475.56731768
centre ...       0.10000000    -475.56731779
right  ...       0.20000000    -475.56731789

left   ...       0.00000000    -475.56731768
centre ...       0.10000000    -475.56731779
right  ...       0.20000000    -475.56731789
new    ...       0.30000000    -475.56731797

__s__    ...       0.10000000

 ALPHA AFTER:   0.30000000000000004     
 XC AFTER:   0.16651690375686617     
 SANITY CHECK:   0.29999999988759990     
 DIRECTION dim            1  value   -3.3873075829172928E-007
 DIRECTION dim            2  value    5.9879135930803876E-007
 DIRECTION dim            3  value   -8.2622091801773247E-008
 DIRECTION dim            4  value   -3.0566194378889319E-007
 DIRECTION dim            5  value   -7.4613451373753285E-007
 DIRECTION dim            6  value   -3.9780067094393322E-007
 DIRECTION dim            7  value   -4.5999929060218963E-008
 DIRECTION dim            8  value    7.5339005761773360E-007
 DIRECTION dim            9  value    5.2470928369086912E-007
 DIRECTION dim           10  value   -1.0326335895925514E-007
 DIRECTION dim           11  value    8.2660032351921390E-007
 DIRECTION dim           12  value    7.1180924739704671E-008
 DIRECTION dim           13  value   -2.8549861868830043E-007
 DIRECTION dim           14  value    3.5244156173687652E-007
 DIRECTION dim           15  value    2.8549407039620694E-008
 DIRECTION dim           16  value   -3.4571883005211909E-007
 DIRECTION dim           17  value    6.3499213529662801E-008
 DIRECTION dim           18  value   -6.7445868023291447E-007
 DIRECTION dim           19  value   -3.8295604650430869E-007
 DIRECTION dim           20  value    1.8308030017042466E-006
 DIRECTION dim           21  value   -3.1627689307218730E-007
 DIRECTION dim           22  value   -3.3271275869926473E-007
 DIRECTION dim           23  value   -2.7862763776913059E-007
 DIRECTION dim           24  value   -1.1924725160877245E-006
 DIRECTION dim           25  value   -2.7971573754478381E-007
 DIRECTION dim           26  value    6.0442347612857020E-007
 DIRECTION dim           27  value    4.0240471327591860E-007
 DIRECTION dim           28  value   -7.5653657835838906E-007
 DIRECTION dim           29  value   -2.9225796986151985E-007
 DIRECTION dim           30  value    4.2199633622124103E-007
 DIRECTION dim           31  value   -3.0966161023740457E-008
 DIRECTION dim           32  value    4.5856786271629144E-007
 DIRECTION dim           33  value   -1.3804077710585663E-006
 DIRECTION dim           34  value   -3.5022191262361024E-007
 DIRECTION dim           35  value    6.1319860355326670E-007
 DIRECTION dim           36  value   -1.6171867015503457E-007
 DIRECTION dim           37  value   -5.7351262915219865E-007
 DIRECTION dim           38  value    3.3028529656205079E-007
 DIRECTION dim           39  value    2.6681303653956750E-007
 DIRECTION dim           40  value   -2.8461432067640224E-007
 DIRECTION dim           41  value    2.0633079325255143E-006
 DIRECTION dim           42  value   -9.4357770694666697E-007
 DIRECTION dim           43  value   -1.8558392120973669E-005
 DIRECTION dim           44  value   -1.8551142458697524E-005
 DIRECTION dim           45  value   -1.8535236256645416E-005
 DIRECTION dim           46  value   -4.9058298499193025E-009
 DIRECTION dim           47  value    1.4639417755439086E-009
 DIRECTION dim           48  value    7.0306965259174683E-010
  Cycle:     11 Energy:      -475.567318  Gnorm:      0.000515  CPU:    0.064
 ALPHA BEFORE:   0.43521500872803420     
 XC BEFORE:   0.16651690375686617     
  ** Opt : line minimisation
left   ...       0.00000000    -475.56731797
centre ...       0.10000000    -475.56731802
right  ...       0.20000000    -475.56731807

left   ...       0.00000000    -475.56731797
centre ...       0.10000000    -475.56731802
right  ...       0.20000000    -475.56731807
new    ...       0.30000000    -475.56731811

__s__    ...       0.10000000

 ALPHA AFTER:   0.30000000000000004     
 XC AFTER:   0.16651683262637884     
 SANITY CHECK:   0.29999999994646426     
 DIRECTION dim            1  value   -2.3710162448743542E-007
 DIRECTION dim            2  value    4.1909572508855284E-007
 DIRECTION dim            3  value   -5.7647296155367576E-008
 DIRECTION dim            4  value   -2.1395043455912864E-007
 DIRECTION dim            5  value   -5.2235014990941743E-007
 DIRECTION dim            6  value   -2.7837029742666271E-007
 DIRECTION dim            7  value   -3.2190383179494016E-008
 DIRECTION dim            8  value    5.2730642329135024E-007
 DIRECTION dim            9  value    3.6740487324810640E-007
 DIRECTION dim           10  value   -7.2274522998920622E-008
 DIRECTION dim           11  value    5.7857833311236487E-007
 DIRECTION dim           12  value    4.9979586530783457E-008
 DIRECTION dim           13  value   -1.9983832838355986E-007
 DIRECTION dim           14  value    2.4676842973624374E-007
 DIRECTION dim           15  value    2.0038782142450125E-008
 DIRECTION dim           16  value   -2.4198990446585683E-007
 DIRECTION dim           17  value    4.4351297391849885E-008
 DIRECTION dim           18  value   -4.7191178269156132E-007
 DIRECTION dim           19  value   -2.6805197305451968E-007
 DIRECTION dim           20  value    1.2815208538149936E-006
 DIRECTION dim           21  value   -2.2126734912828016E-007
 DIRECTION dim           22  value   -2.3288456517587111E-007
 DIRECTION dim           23  value   -1.9508026787254845E-007
 DIRECTION dim           24  value   -8.3460462835230957E-007
 DIRECTION dim           25  value   -1.9578763397725063E-007
 DIRECTION dim           26  value    4.2305738853173936E-007
 DIRECTION dim           27  value    2.8177277838521706E-007
 DIRECTION dim           28  value   -5.2955725667391194E-007
 DIRECTION dim           29  value   -2.0451619193684772E-007
 DIRECTION dim           30  value    2.9542908305194774E-007
 DIRECTION dim           31  value   -2.1675533934370043E-008
 DIRECTION dim           32  value    3.2089824164945462E-007
 DIRECTION dim           33  value   -9.6613788254383977E-007
 DIRECTION dim           34  value   -2.4513496834882526E-007
 DIRECTION dim           35  value    4.2918543492519249E-007
 DIRECTION dim           36  value   -1.1308393335355140E-007
 DIRECTION dim           37  value   -4.0145471883628389E-007
 DIRECTION dim           38  value    2.3113268313134588E-007
 DIRECTION dim           39  value    1.8686595814317812E-007
 DIRECTION dim           40  value   -1.9922555201597229E-007
 DIRECTION dim           41  value    1.4442554912959252E-006
 DIRECTION dim           42  value   -6.6038720278802579E-007
 DIRECTION dim           43  value   -1.2788976531647097E-005
 DIRECTION dim           44  value   -1.2783979347728418E-005
 DIRECTION dim           45  value   -1.2773018146808720E-005
 DIRECTION dim           46  value   -3.4525932757357120E-009
 DIRECTION dim           47  value    1.0303151068820553E-009
 DIRECTION dim           48  value    4.9455198816911325E-010


  **** Optimisation achieved ****


  Final energy =    -475.56731811 eV
  Final Gnorm  =       0.00036027

  Components of energy : 

--------------------------------------------------------------------------------
  Interatomic potentials     =          65.00501728 eV    
  Monopole - monopole (real) =        -237.15141938 eV    
  Monopole - monopole (recip)=        -303.42091601 eV    
  Monopole - monopole (total)=        -540.57233539 eV    
--------------------------------------------------------------------------------
  Total lattice energy       =        -475.56731811 eV    
--------------------------------------------------------------------------------
  Total lattice energy       =          -45884.9765 kJ/(mole unit cells)
--------------------------------------------------------------------------------

  Final fractional coordinates of atoms :

--------------------------------------------------------------------------------
   No.  Atomic        x           y          z          Radius
        Label       (Frac)      (Frac)     (Frac)       (Angs) 
--------------------------------------------------------------------------------
     1  Sr    c     0.999850    0.000360    0.999990    0.000000
     2  Ti    c     0.166517    0.500360    0.499990    0.000000
     3  O     c     0.999850    0.500360    0.499990    0.000000
     4  O     c     0.166517    0.000360    0.499990    0.000000
     5  O     c     0.166517    0.500360    0.999990    0.000000
     6  Sr    c     0.333183    0.000360    0.999990    0.000000
     7  Ti    c     0.499850    0.500360    0.499990    0.000000
     8  O     c     0.333184    0.500359    0.499990    0.000000
     9  O     c     0.499850    0.000360    0.499991    0.000000
    10  O     c     0.499850    0.500360    0.999990    0.000000
    11  Sr    c     0.666517    0.000360    0.999990    0.000000
    12  Ti    c     0.833183    0.500360    0.499991    0.000000
    13  O     c     0.666517    0.500360    0.499990    0.000000
    14  O     c     0.833184    0.000360    0.499990    0.000000
    15  O     c     0.833183    0.500359    0.999990    0.000000
--------------------------------------------------------------------------------

  Final Cartesian lattice vectors (Angstroms) :

       11.869590   -0.000000   -0.000000
       -0.000000    3.956530    0.000000
       -0.000000    0.000000    3.956530


  Final cell parameters and derivatives :

--------------------------------------------------------------------------------
       a           11.869590 Angstrom     dE/de1(xx)     0.009818 eV/strain
       b            3.956530 Angstrom     dE/de2(yy)     0.009817 eV/strain
       c            3.956530 Angstrom     dE/de3(zz)     0.009815 eV/strain
       alpha       90.000000 Degrees      dE/de4(yz)     0.000001 eV/strain
       beta        90.000000 Degrees      dE/de5(xz)    -0.000000 eV/strain
       gamma       90.000000 Degrees      dE/de6(xy)    -0.000000 eV/strain
--------------------------------------------------------------------------------

  Primitive cell volume =           185.808082 Angs**3

  Density of cell =      4.919814 g/cm**3

  Non-primitive cell volume =           185.808082 Angs**3


  Final internal derivatives :

--------------------------------------------------------------------------------
   No.  Atomic          a             b             c           Radius
        Label          (eV)          (eV)          (eV)        (eV/Angs)
--------------------------------------------------------------------------------
      1 Sr    c       0.000000      0.000000      0.000000      0.000000
      2 Ti    c       0.001158      0.000004      0.000047      0.000000
      3 O     c       0.000469      0.000132     -0.000069      0.000000
      4 O     c      -0.000786     -0.000025     -0.000058      0.000000
      5 O     c      -0.000719     -0.000014     -0.000001      0.000000
      6 Sr    c       0.000157     -0.000010     -0.000017      0.000000
      7 Ti    c       0.000462      0.000124      0.000099      0.000000
      8 O     c       0.000151     -0.000222      0.000047      0.000000
      9 O     c      -0.000289      0.000249      0.000145      0.000000
     10 O     c      -0.000327     -0.000154     -0.000259      0.000000
     11 Sr    c       0.000441      0.000022     -0.000088      0.000000
     12 Ti    c      -0.002054      0.000048      0.000329      0.000000
     13 O     c      -0.000104     -0.000113     -0.000074      0.000000
     14 O     c       0.001077      0.000126     -0.000228      0.000000
     15 O     c       0.000812     -0.000200      0.000178      0.000000
--------------------------------------------------------------------------------
  Maximum abs         0.002054      0.000249      0.000329      0.000000
--------------------------------------------------------------------------------


  Time to end of optimisation =       0.0673 seconds

 Exiting ------OPTIONS------

  Peak dynamic memory used =       0.60 MB 


  Timing analysis for GULP :

--------------------------------------------------------------------------------
  Task / Subroutine                                          Time (Seconds)
--------------------------------------------------------------------------------
  Calculation of reciprocal space energy and derivatives          0.0072
  Calculation of real space energy and derivatives                0.0526
  Calculation of matrix inversion                                 0.0001
--------------------------------------------------------------------------------
  Total CPU time                                                  0.0674
--------------------------------------------------------------------------------


  Job Finished at 13:26.51 21st February   2020                               

