********************************************************************************
*                       GENERAL UTILITY LATTICE PROGRAM                        *
*                                 Julian Gale                                  *
*                       Curtin Institute for Computation                       *
*                           Department of Chemistry                            *
*                    Curtin University, Western Australia                      *
********************************************************************************
* Version = 5.1.1 * Last modified =  25th August 2019                          *
********************************************************************************
*  optimise     - perform optimisation run                                     *
*  conp         - constant pressure calculation                                *
*  nosymmetry   - turn off symmetry after initial structure generation         *
*  full         - generate full unit cell when symmetry is removed             *
********************************************************************************
* ASE calculation                                                              *
********************************************************************************


  Job Started  at 11:48.12  4th February   2020                               

  Number of CPUs =     1


  Total number of configurations input =      1

********************************************************************************
*  Input for Configuration =   1                                               *
********************************************************************************

  Formula = O9Sr3Ti3                                                    

  Number of irreducible atoms/shells =      15


  Total number atoms/shells =      15

  Dimensionality = 3               :  Bulk   



  Cartesian lattice vectors (Angstroms) :

        6.000000    0.000000    0.000000
        0.000000    6.000000    0.000000
        0.000000    0.000000   12.000000

  Cell parameters (Angstroms/Degrees):

  a =       6.0000    alpha =  90.0000
  b =       6.0000    beta  =  90.0000
  c =      12.0000    gamma =  90.0000

  Initial cell volume =         432.000000 Angs**3

  Temperature of configuration =  0.000     K 

  Pressure of configuration =         0.000 GPa 

  Fractional coordinates of asymmetric unit :

--------------------------------------------------------------------------------
   No.  Atomic       x           y          z         Charge      Occupancy
        Label      (Frac)      (Frac)     (Frac)        (e)         (Frac)  
--------------------------------------------------------------------------------
      1 O     c    0.000000    0.333330    0.833330    -2.00000    1.000000    
      2 O     c    0.666670 *  0.666670 *  0.000000 *  -2.00000    1.000000    
      3 O     c    0.333330 *  0.666670 *  0.166670 *  -2.00000    1.000000    
      4 O     c    0.333330 *  0.000000 *  0.166670 *  -2.00000    1.000000    
      5 O     c    0.333330 *  0.333330 *  0.166670 *  -2.00000    1.000000    
      6 O     c    0.333330 *  0.333330 *  0.833330 *  -2.00000    1.000000    
      7 O     c    0.333330 *  0.000000 *  0.500000 *  -2.00000    1.000000    
      8 O     c    0.666670 *  0.000000 *  0.000000 *  -2.00000    1.000000    
      9 O     c    0.666670 *  0.000000 *  0.166670 *  -2.00000    1.000000    
     10 Sr    c    0.500000 *  0.833330 *  0.916670 *   2.00000    1.000000    
     11 Sr    c    0.166670 *  0.500000 *  0.916670 *   2.00000    1.000000    
     12 Sr    c    0.166670 *  0.833330 *  0.416670 *   2.00000    1.000000    
     13 Ti    c    0.833330 *  0.500000 *  0.416670 *   4.00000    1.000000    
     14 Ti    c    0.166670 *  0.166670 *  0.916670 *   4.00000    1.000000    
     15 Ti    c    0.833330 *  0.833330 *  0.583330 *   4.00000    1.000000    
--------------------------------------------------------------------------------



********************************************************************************
*  General input information                                                   *
********************************************************************************

  Species output for all configurations : 

--------------------------------------------------------------------------------
  Species    Type    Atomic    Atomic    Charge       Radii (Angs)     Library
                     Number     Mass       (e)     Cova   Ionic  VDW   Symbol
--------------------------------------------------------------------------------
    O        Core        8      16.00  -2.000000   0.730  0.000  1.360          
    Sr       Core       38      87.62   2.000000   1.120  0.000  1.670          
    Ti       Core       22      47.88   4.000000   1.470  0.000  2.190          
--------------------------------------------------------------------------------


  Lattice summation method               =    Ewald          (3-D)
                                         =    Parry          (2-D)
                                         =    Saunders et al (1-D)
  Accuracy factor for lattice sums       =   12.000


  Time limit =      15.00 seconds

  Maximum range for interatomic potentials =    100000.000000 Angstroms

  General interatomic potentials :

--------------------------------------------------------------------------------
Atom  Types   Potential      Parameter       Value         Units   Cutoffs(Ang)
  1     2                                                            Min /  Max 
--------------------------------------------------------------------------------
O    c Sr   c Buckingham    Buckingham A     1952.3900    eV        0.000 10.000
                            Buckingham rho  0.33685000    Ang       
                            Buckingham C     19.220000    eV*Ang^6  
--------------------------------------------------------------------------------
O    c Ti   c Buckingham    Buckingham A     4590.7279    eV        0.000 10.000
                            Buckingham rho  0.26100000    Ang       
                            Buckingham C     0.0000000    eV*Ang^6  
--------------------------------------------------------------------------------
O    c O    c Buckingham    Buckingham A     1388.7700    eV        0.000 10.000
                            Buckingham rho  0.36262000    Ang       
                            Buckingham C     175.00000    eV*Ang^6  
--------------------------------------------------------------------------------
 Calling ------OPTIONS------

********************************************************************************
*  Output for configuration   1                                                *
********************************************************************************


  Components of energy : 

--------------------------------------------------------------------------------
  Interatomic potentials     =          86.73882635 eV    
  Monopole - monopole (real) =         -15.03500613 eV    
  Monopole - monopole (recip)=        -125.05826005 eV    
  Monopole - monopole (total)=        -140.09326618 eV    
--------------------------------------------------------------------------------
  Total lattice energy       =         -53.35443983 eV    
--------------------------------------------------------------------------------
  Total lattice energy       =           -5147.8878 kJ/(mole unit cells)
--------------------------------------------------------------------------------


  Number of variables =       48

  Maximum number of calculations  =          1000
  Maximum Hessian update interval =            10
  Maximum step size               =   1.000000000
  Maximum parameter tolerance     =   0.000010000
  Maximum function  tolerance     =   0.000010000
  Maximum gradient  tolerance     =   0.001000000
  Maximum gradient  component     =   0.010000000

  Cell parameters to be optimised using strains

  Newton-Raphson optimiser to be used

  BFGS hessian update to be used

  Lower half triangular hessian to be used

  Start of bulk optimisation :

  Cycle:      0 Energy:       -53.354440  Gnorm:     31.391907  CPU:    0.014
  ** Hessian calculated **
 Line minimisation2
 ALPHA BEFORE:    1.0000000000000000     
  ** Opt : line minimisation
left   ...       0.00000000     -53.35443983
centre ...       0.25000000     -58.00157871
right  ...       0.50000000     -62.51862460

left   ...       0.00000000     -53.35443983
centre ...       0.25000000     -58.00157871
right  ...       0.50000000     -62.51862460
new    ...       1.50000000     -78.39515649

__s__    ...       1.00000000

left   ...       0.25000000     -58.00157871
centre ...       0.50000000     -62.51862460
right  ...       1.50000000     -78.39515649
new    ...       2.50000000     -87.52574197

__s__    ...       1.00000000

left   ...       0.50000000     -62.51862460
centre ...       1.50000000     -78.39515649
right  ...       2.50000000     -87.52574197
new    ...       3.35349215     -84.44808484

__s__    ...       0.85349215

left   ...       1.50000000     -78.39515649
centre ...       2.50000000     -87.52574197
right  ...       3.35349215     -84.44808484
new    ...       2.66436659     -87.94034992

__s__    ...      -0.68912555

left   ...       2.50000000     -87.52574197
centre ...       2.66436659     -87.94034992
right  ...       3.35349215     -84.44808484
new    ...       2.72400546     -87.98929276

__s__    ...       0.05963887

 ALPHA AFTER:    2.7240054626107124     
  Cycle:      1 Energy:       -87.989293  Gnorm:     31.944337  CPU:    0.027
  ** Hessian calculated **
 Line minimisation2
 ALPHA BEFORE:    1.0000000000000000     
  ** Opt : line minimisation
left   ...       0.00000000     -87.98929276
centre ...       0.25000000     -90.06918011
right  ...       0.50000000     -95.94136460

left   ...       0.00000000     -87.98929276
centre ...       0.25000000     -90.06918011
right  ...       0.50000000     -95.94136460
new    ...       1.00000000    -135.89943280

__s__    ...       0.50000000

left   ...       0.25000000     -90.06918011
centre ...       0.50000000     -95.94136460
right  ...       1.00000000    -135.89943280
new    ...       2.00000000    -200.35460608

__s__    ...       1.00000000

left   ...       0.50000000     -95.94136460
centre ...       1.00000000    -135.89943280
right  ...       2.00000000    -200.35460608
new    ...       3.00000000    -185.38793529

__s__    ...       1.00000000

left   ...       1.00000000    -135.89943280
centre ...       2.00000000    -200.35460608
right  ...       3.00000000    -185.38793529
new    ...       2.31155473      30.84979488

__s__    ...      -0.68844527

left   ...       1.00000000    -135.89943280
centre ...       2.00000000    -200.35460608
right  ...       2.31155473      30.84979488
new    ...       1.55240597    -219.45937426

__s__    ...      -0.75914876

left   ...       1.00000000    -135.89943280
centre ...       1.55240597    -219.45937426
right  ...       2.00000000    -200.35460608
new    ...       1.66616551    -233.89633588

__s__    ...       0.11375954

 ALPHA AFTER:    1.6661655135455342     
  Cycle:      2 Energy:      -233.896336  Gnorm:     17.894640  CPU:    0.044
  ** Hessian calculated **
 Line minimisation2
 ALPHA BEFORE:    1.0000000000000000     
  ** Opt : line minimisation
left   ...       0.00000000    -233.89633588
centre ...       0.25000000    -214.82561053
right  ...      -0.25000000    -262.82638815

left   ...      -0.25000000    -262.82638815
centre ...       0.00000000    -233.89633588
right  ...       0.25000000    -214.82561053
new    ...      -0.75000000    -280.23507885

__s__    ...      -0.50000000

left   ...      -0.75000000    -280.23507885
centre ...      -0.25000000    -262.82638815
right  ...       0.00000000    -233.89633588
new    ...      -0.66138519    -281.98145713

__s__    ...       0.08861481

left   ...      -0.75000000    -280.23507885
centre ...      -0.66138519    -281.98145713
right  ...      -0.25000000    -262.82638815
new    ...      -0.63134691    -281.41536998

__s__    ...       0.03003828

left   ...      -0.75000000    -280.23507885
centre ...      -0.66138519    -281.98145713
right  ...      -0.63134691    -281.41536998
new    ...      -0.67536609    -282.03795197

__s__    ...      -0.04401918

left   ...      -0.75000000    -280.23507885
centre ...      -0.67536609    -282.03795197
right  ...      -0.66138519    -281.98145713
new    ...      -0.67472523    -282.03824814

__s__    ...       0.00064086

 ALPHA AFTER:   0.67472522996488116     
  Cycle:      3 Energy:      -282.038248  Gnorm:     13.505435  CPU:    0.060
  ** Hessian calculated **
 Line minimisation2
 ALPHA BEFORE:    1.0000000000000000     
  ** Opt : line minimisation
left   ...       0.00000000    -282.03824814
centre ...       0.25000000    -292.47118835
right  ...       0.50000000    -301.88834593

left   ...       0.00000000    -282.03824814
centre ...       0.25000000    -292.47118835
right  ...       0.50000000    -301.88834593
new    ...       1.50000000    -301.15799340

__s__    ...       1.00000000

left   ...       0.25000000    -292.47118835
centre ...       0.50000000    -301.88834593
right  ...       1.50000000    -301.15799340
new    ...       0.98811244    -312.76485502

__s__    ...      -0.51188756

left   ...       0.50000000    -301.88834593
centre ...       0.98811244    -312.76485502
right  ...       1.50000000    -301.15799340
new    ...       0.99187729    -312.78632455

__s__    ...       0.00376485

 ALPHA AFTER:   0.99187728704948153     
  Cycle:      4 Energy:      -312.786325  Gnorm:     13.273913  CPU:    0.069
  ** Hessian calculated **
 Line minimisation2
 ALPHA BEFORE:    1.0000000000000000     
  ** Opt : line minimisation
left   ...       0.00000000    -312.78632455
centre ...       0.25000000    -322.38749712
right  ...       0.50000000    -328.78348039

left   ...       0.00000000    -312.78632455
centre ...       0.25000000    -322.38749712
right  ...       0.50000000    -328.78348039
new    ...       0.87387719    -324.28252365

__s__    ...       0.37387719

left   ...       0.25000000    -322.38749712
centre ...       0.50000000    -328.78348039
right  ...       0.87387719    -324.28252365
new    ...       0.58712332    -329.63890741

__s__    ...      -0.28675386

left   ...       0.50000000    -328.78348039
centre ...       0.58712332    -329.63890741
right  ...       0.87387719    -324.28252365
new    ...       0.60796877    -329.69965443

__s__    ...       0.02084545

 ALPHA AFTER:   0.60796877185590836     
  Cycle:      5 Energy:      -329.699654  Gnorm:     15.064958  CPU:    0.076
  ** Hessian calculated **
 Line minimisation2
 ALPHA BEFORE:    1.0000000000000000     
  ** Opt : line minimisation
left   ...       0.00000000    -329.69965443
centre ...       0.25000000   -8006.13352726
right  ...       0.50000000    -345.12809105

left   ...       0.00000000    -329.69965443
centre ...       0.25000000   -8006.13352726
right  ...       0.50000000    -345.12809105
new    ...       0.25012574   -8037.94515433

__s__    ...      -0.24987426

left   ...       0.25000000   -8006.13352726
centre ...       0.25012574   -8037.94515433
right  ...       0.50000000    -345.12809105
new    ...       0.36150180    -957.34628299

__s__    ...       0.11137606

left   ...       0.25000000   -8006.13352726
centre ...       0.25012574   -8037.94515433
right  ...       0.36150180    -957.34628299
new    ...       0.29461769  -11138.41117790

__s__    ...      -0.06688411

left   ...       0.25012574   -8037.94515433
centre ...       0.29461769  -11138.41117790
right  ...       0.36150180    -957.34628299
new    ...       0.28985968  -12091.58788282

__s__    ...      -0.00475801

left   ...       0.25012574   -8037.94515433
centre ...       0.28985968  -12091.58788282
right  ...       0.29461769  -11138.41117790
new    ...       0.27749898  -13110.97743946

__s__    ...      -0.01236070

left   ...       0.25012574   -8037.94515433
centre ...       0.27749898  -13110.97743946
right  ...       0.28985968  -12091.58788282
new    ...       0.27756117  -13112.19099976

__s__    ...       0.00006219

 ALPHA AFTER:   0.27756117334359109     
  Cycle:      6 Energy:    -13112.191000  Gnorm:  28641.730181  CPU:    0.086
  ** Hessian calculated **
 Line minimisation2
 ALPHA BEFORE:    1.0000000000000000     
  ** Opt : line minimisation
left   ...       0.00000000  -13112.19099976
centre ...       0.25000000   -6023.64809030
right  ...      -0.25000000    -249.91629155

left   ...      -0.25000000    -249.91629155
centre ...       0.00000000  -13112.19099976
right  ...       0.25000000   -6023.64809030
new    ...       0.03617478  -15455.20975523

__s__    ...       0.28617478

left   ...       0.00000000  -13112.19099976
centre ...       0.03617478  -15455.20975523
right  ...       0.25000000   -6023.64809030
new    ...       0.09244735  -13881.24028838

__s__    ...       0.05627257

left   ...       0.00000000  -13112.19099976
centre ...       0.03617478  -15455.20975523
right  ...       0.09244735  -13881.24028838
new    ...       0.05036995  -15562.12897432

__s__    ...      -0.04207741

left   ...       0.03617478  -15455.20975523
centre ...       0.05036995  -15562.12897432
right  ...       0.09244735  -13881.24028838
new    ...       0.04773586  -15575.09637988

__s__    ...      -0.00263409

left   ...       0.03617478  -15455.20975523
centre ...       0.04773586  -15575.09637988
right  ...       0.05036995  -15562.12897432
new    ...       0.04676811  -15576.25256219

__s__    ...      -0.00096775

left   ...       0.03617478  -15455.20975523
centre ...       0.04676811  -15576.25256219
right  ...       0.04773586  -15575.09637988
new    ...       0.04670479  -15576.25959143

__s__    ...      -0.00006332

 ALPHA AFTER:    4.6704794882091762E-002
  Cycle:      7 Energy:    -15576.259591  Gnorm:  34788.537729  CPU:    0.097
  ** Hessian calculated **
 Line minimisation2
 ALPHA BEFORE:    1.0000000000000000     
  ** Opt : line minimisation
left   ...       0.00000000  -15576.25959143
centre ...       0.25000000  -10814.72352336
right  ...      -0.25000000  -10957.50237290

left   ...      -0.25000000  -10957.50237290
centre ...       0.00000000  -15576.25959143
right  ...       0.25000000  -10814.72352336
new    ...      -0.00190264  -15578.64360079

__s__    ...       0.24809736

left   ...      -0.25000000  -10957.50237290
centre ...      -0.00190264  -15578.64360079
right  ...       0.00000000  -15576.25959143
new    ...      -0.00883010  -15581.68748947

__s__    ...      -0.00692746

left   ...      -0.25000000  -10957.50237290
centre ...      -0.00883010  -15581.68748947
right  ...      -0.00190264  -15578.64360079
new    ...      -0.00814541  -15581.78143135

__s__    ...       0.00068469

 ALPHA AFTER:    8.1454129523708535E-003
  Cycle:      8 Energy:    -15581.781431  Gnorm:  34781.812450  CPU:    0.106
  ** Hessian calculated **
 Line minimisation2
 ALPHA BEFORE:    1.0000000000000000     
  ** Opt : line minimisation
left   ...       0.00000000  -15581.78143135
centre ...       0.25000000  -11108.91937230
right  ...      -0.25000000   -9639.87946178

left   ...      -0.25000000   -9639.87946178
centre ...       0.00000000  -15581.78143135
right  ...       0.25000000  -11108.91937230
new    ...       0.01763170  -15612.12911318

__s__    ...       0.26763170

left   ...       0.00000000  -15581.78143135
centre ...       0.01763170  -15612.12911318
right  ...       0.25000000  -11108.91937230
new    ...       0.01901214  -15611.73618515

__s__    ...       0.00138044

 ALPHA AFTER:    1.7631699413392932E-002
  Cycle:      9 Energy:    -15612.129113  Gnorm:  34914.043782  CPU:    0.113
  ** Hessian calculated **
 Line minimisation2
 ALPHA BEFORE:    1.0000000000000000     
  ** Opt : line minimisation
left   ...       0.00000000  -15612.12911318
centre ...       0.25000000  -10529.99837738
right  ...      -0.25000000  -12734.97455124

left   ...      -0.25000000  -12734.97455124
centre ...       0.00000000  -15612.12911318
right  ...       0.25000000  -10529.99837738
new    ...      -0.03462899  -15766.56578958

__s__    ...       0.21537101

left   ...      -0.25000000  -12734.97455124
centre ...      -0.03462899  -15766.56578958
right  ...       0.00000000  -15612.12911318
new    ...      -0.04738961  -15776.16463031

__s__    ...      -0.01276062

left   ...      -0.25000000  -12734.97455124
centre ...      -0.04738961  -15776.16463031
right  ...      -0.03462899  -15766.56578958
new    ...      -0.04614838  -15776.37013131

__s__    ...       0.00124123

 ALPHA AFTER:    4.6148384572752492E-002
  Cycle:     10 Energy:    -15776.370131  Gnorm:  35240.802748  CPU:    0.122
  ** Hessian calculated **
 Line minimisation2
 ALPHA BEFORE:    1.0000000000000000     
  ** Opt : line minimisation
left   ...       0.00000000  -15776.37013131
centre ...       0.25000000  -12168.15390224
right  ...      -0.25000000   -6067.17897362

left   ...      -0.25000000   -6067.17897362
centre ...       0.00000000  -15776.37013131
right  ...       0.25000000  -12168.15390224
new    ...       0.05726504  -16593.41816817

__s__    ...       0.30726504

left   ...       0.00000000  -15776.37013131
centre ...       0.05726504  -16593.41816817
right  ...       0.25000000  -12168.15390224
new    ...       0.07653920  -16620.26990139

__s__    ...       0.01927416

left   ...       0.05726504  -16593.41816817
centre ...       0.07653920  -16620.26990139
right  ...       0.25000000  -12168.15390224
new    ...       0.07186355  -16625.41623028

__s__    ...      -0.00467565

left   ...       0.05726504  -16593.41816817
centre ...       0.07186355  -16625.41623028
right  ...       0.07653920  -16620.26990139
new    ...       0.07097978  -16625.55252004

__s__    ...      -0.00088376

 ALPHA AFTER:    7.0979784555089215E-002
  Cycle:     11 Energy:    -16625.552520  Gnorm:  37809.742261  CPU:    0.137
  ** Hessian calculated **
 Line minimisation2
 ALPHA BEFORE:    1.0000000000000000     
  ** Opt : line minimisation
left   ...       0.00000000  -16625.55252004
centre ...       0.13108474  -16247.42214210
right  ...      -0.13108474  -27071.64694065

left   ...      -0.13108474  -27071.64694065
centre ...       0.00000000  -16625.55252004
right  ...       0.13108474  -16247.42214210
new    ...      -0.26216947  -18051.34426843

__s__    ...      -0.13108474

left   ...      -0.26216947  -18051.34426843
centre ...      -0.13108474  -27071.64694065
right  ...       0.00000000  -16625.55252004
new    ...      -0.13588530  -49148.54045004

__s__    ...       0.12628417

left   ...      -0.26216947  -18051.34426843
centre ...      -0.13588530  -49148.54045004
right  ...      -0.13108474  -27071.64694065
new    ...      -0.19569623  -17692.38960448

__s__    ...      -0.05981092

left   ...      -0.19569623  -17692.38960448
centre ...      -0.13588530  -49148.54045004
right  ...      -0.13108474  -27071.64694065
new    ...      -0.16247538  -63020.48499491

__s__    ...       0.03322084

left   ...      -0.19569623  -17692.38960448
centre ...      -0.16247538  -63020.48499491
right  ...      -0.13588530  -49148.54045004
new    ...      -0.15745202 -178828.06392519

__s__    ...       0.00502337

left   ...      -0.16247538  -63020.48499491
centre ...      -0.15745202 -178828.06392519
right  ...      -0.13588530  -49148.54045004
new    ...      -0.14941897 -474417.21542775

__s__    ...       0.00803305

 ALPHA AFTER:   0.14941896677208838     
  Cycle:     12 Energy:   -474417.215428  Gnorm:1445726.379824  CPU:    0.149
  ** Hessian calculated **
 Line minimisation2
 ALPHA BEFORE:    1.0000000000000000     
  ** Opt : line minimisation
left   ...       0.00000000 -474417.21542775
centre ...       0.20856392   -2455.93838334
right  ...      -0.20856392 -126181.80855654

left   ...      -0.20856392 -126181.80855654
centre ...       0.00000000 -474417.21542775
right  ...       0.20856392   -2455.93838334
new    ...      -0.01573083 -702823.95988930

__s__    ...       0.19283309

left   ...      -0.20856392 -126181.80855654
centre ...      -0.01573083 -702823.95988930
right  ...       0.00000000 -474417.21542775
new    ...      -0.09433809  -63755.40619137

__s__    ...      -0.07860726

left   ...      -0.09433809  -63755.40619137
centre ...      -0.01573083 -702823.95988930
right  ...       0.00000000 -474417.21542775
new    ...      -0.03810350 -425025.49077981

__s__    ...       0.05623460

left   ...      -0.03810350 -425025.49077981
centre ...      -0.01573083 -702823.95988930
right  ...       0.00000000 -474417.21542775
new    ...      -0.01813493 -703930.80692015

__s__    ...       0.01996856

left   ...      -0.03810350 -425025.49077981
centre ...      -0.01813493 -703930.80692015
right  ...      -0.01573083 -702823.95988930
new    ...      -0.01728985 -704812.41042257

__s__    ...       0.00084508

left   ...      -0.01813493 -703930.80692015
centre ...      -0.01728985 -704812.41042257
right  ...      -0.01573083 -702823.95988930
new    ...      -0.01717156 -704826.36832447

__s__    ...       0.00011829

 ALPHA AFTER:    1.7171563819504583E-002
  Cycle:     13 Energy:   -704826.368324  Gnorm:2112963.012101  CPU:    0.164
  ** Hessian calculated **
 Line minimisation2
 ALPHA BEFORE:    1.0000000000000000     
  ** Opt : line minimisation
left   ...       0.00000000 -704826.36832447
centre ...       0.25000000 -800252.70319547
right  ...       0.50000000 -305238.43472649

left   ...       0.00000000 -704826.36832447
centre ...       0.25000000 -800252.70319547
right  ...       0.50000000 -305238.43472649
new    ...       0.24600024 -805608.51500467

__s__    ...      -0.25399976

left   ...       0.00000000 -704826.36832447
centre ...       0.24600024 -805608.51500467
right  ...       0.25000000 -800252.70319547
new    ...       0.15228467 -862987.57377034

__s__    ...      -0.09371557

left   ...       0.00000000 -704826.36832447
centre ...       0.15228467 -862987.57377034
right  ...       0.24600024 -805608.51500467
new    ...       0.15352431 -863121.56662981

__s__    ...       0.00123964

left   ...       0.15228467 -862987.57377034
centre ...       0.15352431 -863121.56662981
right  ...       0.24600024 -805608.51500467
new    ...       0.15984253 -863435.87156961

__s__    ...       0.00631822

left   ...       0.15352431 -863121.56662981
centre ...       0.15984253 -863435.87156961
right  ...       0.24600024 -805608.51500467
new    ...       0.15987396 -863435.88685609

__s__    ...       0.00003143

 ALPHA AFTER:   0.15987395846102812     
  Cycle:     14 Energy:   -863435.886856  Gnorm:3815131.803378  CPU:    0.180
  ** Hessian calculated **
 Line minimisation2
 ALPHA BEFORE:    1.0000000000000000     
  ** Opt : line minimisation
left   ...       0.00000000 -863435.88685609
centre ...       0.13583026 -770728.96391478
right  ...      -0.13583026 -967377.35731638

left   ...      -0.13583026 -967377.35731638
centre ...       0.00000000 -863435.88685609
right  ...       0.13583026 -770728.96391478
new    ...      -0.27166053-1083498.24952445

__s__    ...      -0.13583026

left   ...      -0.27166053-1083498.24952445
centre ...      -0.13583026 -967377.35731638
right  ...       0.00000000 -863435.88685609
new    ...      -0.40749079-1212673.18017172

__s__    ...      -0.13583026

left   ...      -0.40749079-1212673.18017172
centre ...      -0.27166053-1083498.24952445
right  ...      -0.13583026 -967377.35731638
new    ...      -0.54332105-1355740.63344203

__s__    ...      -0.13583026

left   ...      -0.54332105-1355740.63344203
centre ...      -0.40749079-1212673.18017172
right  ...      -0.27166053-1083498.24952445
new    ...      -0.67915132-1513100.66446464

__s__    ...      -0.13583026

left   ...      -0.67915132-1513100.66446464
centre ...      -0.54332105-1355740.63344203
right  ...      -0.40749079-1212673.18017172
new    ...      -0.81498158-1684896.41463848

__s__    ...      -0.13583026

left   ...      -0.81498158-1684896.41463848
centre ...      -0.67915132-1513100.66446464
right  ...      -0.54332105-1355740.63344203
new    ...      -0.95081184-1870662.86353259

__s__    ...      -0.13583026

 ALPHA AFTER:   0.95081184367271598     
  Cycle:     15 Energy:  -1870662.863533  Gnorm:8006607.780115  CPU:    0.196
  ** Hessian calculated **
 Line minimisation2
 ALPHA BEFORE:    1.0000000000000000     
  ** Opt : line minimisation
left   ...       0.00000000-1870662.86353259
centre ...       0.10393087  -18015.58638285
right  ...      -0.10393087  -24631.87539813

left   ...      -0.10393087  -24631.87539813
centre ...       0.00000000-1870662.86353259
right  ...       0.10393087  -18015.58638285
new    ...      -0.00009296-1854513.93782167

__s__    ...       0.10383791

left   ...      -0.00009296-1854513.93782167
centre ...       0.00000000-1870662.86353259
right  ...       0.10393087  -18015.58638285
new    ...       0.04712518  -56078.81534047

__s__    ...       0.04721814

left   ...      -0.00009296-1854513.93782167
centre ...       0.00000000-1870662.86353259
right  ...       0.04712518  -56078.81534047
new    ...       0.01927912-1384581.60943023

__s__    ...      -0.02784606

left   ...      -0.00009296-1854513.93782167
centre ...       0.00000000-1870662.86353259
right  ...       0.01927912-1384581.60943023
new    ...       0.00841197-2800233.15410805

__s__    ...      -0.01086714

left   ...       0.00000000-1870662.86353259
centre ...       0.00841197-2800233.15410805
right  ...       0.01927912-1384581.60943023
new    ...       0.00863015-2797239.14816392

__s__    ...       0.00021817

left   ...       0.00000000-1870662.86353259
centre ...       0.00841197-2800233.15410805
right  ...       0.00863015-2797239.14816392
new    ...       0.00804439-2801369.84019073

__s__    ...      -0.00058576

 ALPHA AFTER:    8.0443912223385535E-003
  Cycle:     16 Energy:  -2801369.840191  Gnorm:8539430.644187  CPU:    0.211
  ** Hessian calculated **
 Line minimisation2
 ALPHA BEFORE:    1.0000000000000000     
  ** Opt : line minimisation
left   ...       0.00000000-2801369.84019073
centre ...       0.10184864-2094595.33786773
right  ...      -0.10184864 -395953.70735318

left   ...      -0.10184864 -395953.70735318
centre ...       0.00000000-2801369.84019073
right  ...       0.10184864-2094595.33786773
new    ...       0.00000000-2801369.84019073

__s__    ...       0.10184864

 ALPHA AFTER:    0.0000000000000000     
  Cycle:     17 Energy:  -2801369.840191  Gnorm:8539430.644187  CPU:    0.223
  ** Hessian calculated **
 Line minimisation2
 ALPHA BEFORE:    1.0000000000000000     
  ** Opt : line minimisation
left   ...       0.00000000-2801369.84019073
centre ...       0.10184864-2094595.33786773
right  ...      -0.10184864 -395953.70735318

left   ...      -0.10184864 -395953.70735318
centre ...       0.00000000-2801369.84019073
right  ...       0.10184864-2094595.33786773
new    ...       0.00000000-2801369.84019073

__s__    ...       0.10184864

 ALPHA AFTER:    0.0000000000000000     


  **** Conditions for a minimum have not been satisfied. However ****
  **** no lower point can be found - treat results with caution  ****
  **** unless gradient norm is small (less than 0.1)             ****


  Final energy = **************** eV
  Final Gnorm  = 8539430.64418749

  Components of energy : 

--------------------------------------------------------------------------------
  Interatomic potentials     =    -2801177.94614176 eV    
  Monopole - monopole (real) =         122.94304044 eV    
  Monopole - monopole (recip)=        -314.83708941 eV    
  Monopole - monopole (total)=        -191.89404897 eV    
--------------------------------------------------------------------------------
  Total lattice energy       =    -2801369.84019073 eV    
--------------------------------------------------------------------------------
  Total lattice energy       =      -270289366.7185 kJ/(mole unit cells)
--------------------------------------------------------------------------------

  Final fractional coordinates of atoms :

--------------------------------------------------------------------------------
   No.  Atomic        x           y          z          Radius
        Label       (Frac)      (Frac)     (Frac)       (Angs) 
--------------------------------------------------------------------------------
     1  O     c     0.000000    0.333330    0.833330    0.000000
     2  O     c     0.827878    0.567903    0.075225    0.000000
     3  O     c     0.768105    0.563530    0.044638    0.000000
     4  O     c     0.433060    0.874810    0.205129    0.000000
     5  O     c     0.529252    0.191269    0.217859    0.000000
     6  O     c     0.368800    0.272456    0.841236    0.000000
     7  O     c     0.555800    0.884633    0.566054    0.000000
     8  O     c     0.806896    0.085358    0.998265    0.000000
     9  O     c     0.453581    0.951865    0.216733    0.000000
    10  Sr    c     0.578543    0.773516    0.001055    0.000000
    11  Sr    c     0.249029    0.549955    0.999550    0.000000
    12  Sr    c     0.435036    0.641341    0.342985    0.000000
    13  Ti    c     0.740786    0.268563    0.572130    0.000000
    14  Ti    c     0.250012    0.175161    0.044900    0.000000
    15  Ti    c     0.862397    0.831545    0.298405    0.000000
--------------------------------------------------------------------------------

  Final Cartesian lattice vectors (Angstroms) :

        4.755953   -0.195074   -1.756635
       -0.195074    6.004861   -0.423464
       -3.513270   -0.846927    6.539191


  Final cell parameters and derivatives :

--------------------------------------------------------------------------------
       a            5.073747 Angstrom     dE/de1(xx) ************ eV/strain
       b            6.022933 Angstrom     dE/de2(yy) ************ eV/strain
       c            7.471370 Angstrom     dE/de3(zz) ************ eV/strain
       alpha       99.167572 Degrees      dE/de4(yz) ************ eV/strain
       beta       137.684031 Degrees      dE/de5(xz) ************ eV/strain
       gamma       92.541901 Degrees      dE/de6(xy) ************ eV/strain
--------------------------------------------------------------------------------

  Primitive cell volume =           147.157488 Angs**3

  Density of cell =      6.211993 g/cm**3

  Non-primitive cell volume =           147.157488 Angs**3


  Final internal derivatives :

--------------------------------------------------------------------------------
   No.  Atomic          a             b             c           Radius
        Label          (eV)          (eV)          (eV)        (eV/Angs)
--------------------------------------------------------------------------------
      1 O     c       0.000000      0.000000      0.000000      0.000000
      2 O     c **************************** 226167.932621      0.000000
      3 O     c ****************************-226247.770232      0.000000
      4 O     c  -60358.480989************** 293649.884626      0.000000
      5 O     c    -792.634526    181.955489   -628.855257      0.000000
      6 O     c      92.058982     84.457141     12.659252      0.000000
      7 O     c      67.171486    -65.588619   -143.423521      0.000000
      8 O     c     -32.960250     55.238945    -21.492515      0.000000
      9 O     c   60233.9865921642174.954732-293538.516084      0.000000
     10 Sr    c      42.542322   -321.806763    295.695748      0.000000
     11 Sr    c     -29.805207   -272.220127    -30.792509      0.000000
     12 Sr    c      29.674605    114.821557    -69.943779      0.000000
     13 Ti    c     -58.976023    167.581408    448.044873      0.000000
     14 Ti    c     801.132909   -157.818005    553.776535      0.000000
     15 Ti    c     -68.974445    -47.991359    -86.354578      0.000000
--------------------------------------------------------------------------------
  Maximum abs   **************************** 293649.884626      0.000000
--------------------------------------------------------------------------------


  Time to end of optimisation =       0.2352 seconds

 Exiting ------OPTIONS------

  Peak dynamic memory used =       0.60 MB 


  Timing analysis for GULP :

--------------------------------------------------------------------------------
  Task / Subroutine                                          Time (Seconds)
--------------------------------------------------------------------------------
  Calculation of reciprocal space energy and derivatives          0.0197
  Calculation of real space energy and derivatives                0.2054
  Calculation and manipulation of Hessian matrix                  0.0002
  Calculation of matrix inversion                                 0.0007
--------------------------------------------------------------------------------
  Total CPU time                                                  0.2352
--------------------------------------------------------------------------------


  Job Finished at 11:48.13  4th February   2020                               

