********************************************************************************
*                       GENERAL UTILITY LATTICE PROGRAM                        *
*                                 Julian Gale                                  *
*                       Curtin Institute for Computation                       *
*                           Department of Chemistry                            *
*                    Curtin University, Western Australia                      *
********************************************************************************
* Version = 5.1.1 * Last modified =  25th August 2019                          *
********************************************************************************
*  optimise     - perform optimisation run                                     *
*  conp         - constant pressure calculation                                *
*  nosymmetry   - turn off symmetry after initial structure generation         *
*  full         - generate full unit cell when symmetry is removed             *
********************************************************************************
* ASE calculation                                                              *
********************************************************************************


  Job Started  at 16:21.35  3rd February   2020                               

  Number of CPUs =     1


  Total number of configurations input =      1

********************************************************************************
*  Input for Configuration =   1                                               *
********************************************************************************

  Formula = Sr3Ti3O9                                                    

  Number of irreducible atoms/shells =      15


  Total number atoms/shells =      15

  Dimensionality = 3               :  Bulk   



  Cartesian lattice vectors (Angstroms) :

       12.000000    0.000000    0.000000
        0.000000    4.000000    0.000000
        0.000000    0.000000    4.000000

  Cell parameters (Angstroms/Degrees):

  a =      12.0000    alpha =  90.0000
  b =       4.0000    beta  =  90.0000
  c =       4.0000    gamma =  90.0000

  Initial cell volume =         192.000000 Angs**3

  Temperature of configuration =  0.000     K 

  Pressure of configuration =         0.000 GPa 

  Fractional coordinates of asymmetric unit :

--------------------------------------------------------------------------------
   No.  Atomic       x           y          z         Charge      Occupancy
        Label      (Frac)      (Frac)     (Frac)        (e)         (Frac)  
--------------------------------------------------------------------------------
      1 Sr    c    0.000010    0.999690    0.999890     2.00000    1.000000    
      2 Ti    c    0.166800 *  0.499890 *  0.500100 *   4.00000    1.000000    
      3 O     c    0.999980 *  0.499990 *  0.499600 *  -2.00000    1.000000    
      4 O     c    0.166690 *  0.000060 *  0.499610 *  -2.00000    1.000000    
      5 O     c    0.166760 *  0.500350 *  0.999970 *  -2.00000    1.000000    
      6 Sr    c    0.333300 *  0.000040 *  0.000210 *   2.00000    1.000000    
      7 Ti    c    0.499860 *  0.499940 *  0.500020 *   4.00000    1.000000    
      8 O     c    0.333190 *  0.499580 *  0.499820 *  -2.00000    1.000000    
      9 O     c    0.500010 *  0.999840 *  0.500110 *  -2.00000    1.000000    
     10 O     c    0.500030 *  0.500120 *  0.000770 *  -2.00000    1.000000    
     11 Sr    c    0.666670 *  0.000110 *  0.999610 *   2.00000    1.000000    
     12 Ti    c    0.833200 *  0.500360 *  0.500240 *   4.00000    1.000000    
     13 O     c    0.666510 *  0.500060 *  0.499790 *  -2.00000    1.000000    
     14 O     c    0.833360 *  0.999950 *  0.499960 *  -2.00000    1.000000    
     15 O     c    0.833160 *  0.499710 *  0.999820 *  -2.00000    1.000000    
--------------------------------------------------------------------------------



********************************************************************************
*  General input information                                                   *
********************************************************************************

  Species output for all configurations : 

--------------------------------------------------------------------------------
  Species    Type    Atomic    Atomic    Charge       Radii (Angs)     Library
                     Number     Mass       (e)     Cova   Ionic  VDW   Symbol
--------------------------------------------------------------------------------
    Sr       Core       38      87.62   2.000000   1.120  0.000  1.670          
    Ti       Core       22      47.88   4.000000   1.470  0.000  2.190          
    O        Core        8      16.00  -2.000000   0.730  0.000  1.360          
--------------------------------------------------------------------------------


  Lattice summation method               =    Ewald          (3-D)
                                         =    Parry          (2-D)
                                         =    Saunders et al (1-D)
  Accuracy factor for lattice sums       =   12.000


  Time limit =      15.00 seconds

  Maximum range for interatomic potentials =    100000.000000 Angstroms

  General interatomic potentials :

--------------------------------------------------------------------------------
Atom  Types   Potential      Parameter       Value         Units   Cutoffs(Ang)
  1     2                                                            Min /  Max 
--------------------------------------------------------------------------------
O    c Sr   c Buckingham    Buckingham A     1952.3900    eV        0.000 10.000
                            Buckingham rho  0.33685000    Ang       
                            Buckingham C     19.220000    eV*Ang^6  
--------------------------------------------------------------------------------
O    c Ti   c Buckingham    Buckingham A     4590.7279    eV        0.000 10.000
                            Buckingham rho  0.26100000    Ang       
                            Buckingham C     0.0000000    eV*Ang^6  
--------------------------------------------------------------------------------
O    c O    c Buckingham    Buckingham A     1388.7700    eV        0.000 10.000
                            Buckingham rho  0.36262000    Ang       
                            Buckingham C     175.00000    eV*Ang^6  
--------------------------------------------------------------------------------
 Calling ------OPTIONS------

********************************************************************************
*  Output for configuration   1                                                *
********************************************************************************


  Components of energy : 

--------------------------------------------------------------------------------
  Interatomic potentials     =          59.32122339 eV    
  Monopole - monopole (real) =        -234.57430679 eV    
  Monopole - monopole (recip)=        -300.12341249 eV    
  Monopole - monopole (total)=        -534.69771928 eV    
--------------------------------------------------------------------------------
  Total lattice energy       =        -475.37649589 eV    
--------------------------------------------------------------------------------
  Total lattice energy       =          -45866.5651 kJ/(mole unit cells)
--------------------------------------------------------------------------------


  Number of variables =       48

  Maximum number of calculations  =          1000
  Maximum Hessian update interval =            10
  Maximum step size               =   1.000000000
  Maximum parameter tolerance     =   0.000010000
  Maximum function  tolerance     =   0.000010000
  Maximum gradient  tolerance     =   0.001000000
  Maximum gradient  component     =   0.010000000

  Cell parameters to be optimised using strains

  Newton-Raphson optimiser to be used

  BFGS hessian update to be used

  Lower half triangular hessian to be used

  Start of bulk optimisation :

  Cycle:      0 Energy:      -475.376496  Gnorm:      0.416613  CPU:    0.014
  ** Hessian calculated **
 Line minimisation2
 ALPHA BEFORE:    1.0000000000000000     
  ** Opt : line minimisation
left   ...       0.00000000    -475.37649589
centre ...       0.25000000    -475.46209185
right  ...       0.50000000    -475.52283291

left   ...       0.00000000    -475.37649589
centre ...       0.25000000    -475.46209185
right  ...       0.50000000    -475.52283291
new    ...       0.98595657    -475.56715145

__s__    ...       0.48595657

left   ...       0.25000000    -475.46209185
centre ...       0.50000000    -475.52283291
right  ...       0.98595657    -475.56715145
new    ...       0.96410273    -475.56730537

__s__    ...      -0.02185384

 ALPHA AFTER:   0.96410273238168764     
  Cycle:      1 Energy:      -475.567305  Gnorm:      0.003873  CPU:    0.026
 Line minimisation2
 ALPHA BEFORE:    74.120841208282471     
  ** Opt : line minimisation
left   ...       0.00000000    -475.56730537
centre ...       1.00000000    -475.56731797
right  ...       2.00000000    -475.56729819

left   ...       0.00000000    -475.56730537
centre ...       1.00000000    -475.56731797
right  ...       2.00000000    -475.56729819
new    ...       1.00000000    -475.56731797

__s__    ...      -1.00000000

 ALPHA AFTER:    1.0000000000000000     
  Cycle:      2 Energy:      -475.567318  Gnorm:      0.000552  CPU:    0.031
 Line minimisation2
 ALPHA BEFORE:    7.0408872258735578     
  ** Opt : line minimisation
left   ...       0.00000000    -475.56731797
centre ...       1.00000000    -475.56731824
right  ...       2.00000000    -475.56731793

left   ...       0.00000000    -475.56731797
centre ...       1.00000000    -475.56731824
right  ...       2.00000000    -475.56731793
new    ...       1.00000000    -475.56731824

__s__    ...      -1.00000000

 ALPHA AFTER:    1.0000000000000000     


  **** Optimisation achieved ****


  Final energy =    -475.56731824 eV
  Final Gnorm  =       0.00003461

  Components of energy : 

--------------------------------------------------------------------------------
  Interatomic potentials     =          65.00959466 eV    
  Monopole - monopole (real) =        -237.15342755 eV    
  Monopole - monopole (recip)=        -303.42348535 eV    
  Monopole - monopole (total)=        -540.57691291 eV    
--------------------------------------------------------------------------------
  Total lattice energy       =        -475.56731824 eV    
--------------------------------------------------------------------------------
  Total lattice energy       =          -45884.9765 kJ/(mole unit cells)
--------------------------------------------------------------------------------

  Final fractional coordinates of atoms :

--------------------------------------------------------------------------------
   No.  Atomic        x           y          z          Radius
        Label       (Frac)      (Frac)     (Frac)       (Angs) 
--------------------------------------------------------------------------------
     1  Sr    c     0.000010    0.999690    0.999890    0.000000
     2  Ti    c     0.166677    0.499690    0.499890    0.000000
     3  O     c     0.000010    0.499690    0.499890    0.000000
     4  O     c     0.166677    0.999690    0.499890    0.000000
     5  O     c     0.166677    0.499690    0.999890    0.000000
     6  Sr    c     0.333343    0.999690    0.999891    0.000000
     7  Ti    c     0.500010    0.499690    0.499891    0.000000
     8  O     c     0.333343    0.499690    0.499890    0.000000
     9  O     c     0.500010    0.999690    0.499890    0.000000
    10  O     c     0.500010    0.499690    0.999889    0.000000
    11  Sr    c     0.666677    0.999690    0.999890    0.000000
    12  Ti    c     0.833343    0.499690    0.499890    0.000000
    13  O     c     0.666677    0.499690    0.499890    0.000000
    14  O     c     0.833343    0.999691    0.499890    0.000000
    15  O     c     0.833343    0.499690    0.999891    0.000000
--------------------------------------------------------------------------------

  Final Cartesian lattice vectors (Angstroms) :

       11.869490    0.000000   -0.000000
        0.000000    3.956497    0.000000
       -0.000000    0.000000    3.956495


  Final cell parameters and derivatives :

--------------------------------------------------------------------------------
       a           11.869490 Angstrom     dE/de1(xx)     0.000657 eV/strain
       b            3.956497 Angstrom     dE/de2(yy)     0.000676 eV/strain
       c            3.956495 Angstrom     dE/de3(zz)     0.000545 eV/strain
       alpha       90.000000 Degrees      dE/de4(yz)     0.000000 eV/strain
       beta        90.000000 Degrees      dE/de5(xz)    -0.000002 eV/strain
       gamma       90.000000 Degrees      dE/de6(xy)     0.000000 eV/strain
--------------------------------------------------------------------------------

  Primitive cell volume =           185.803362 Angs**3

  Density of cell =      4.919939 g/cm**3

  Non-primitive cell volume =           185.803362 Angs**3


  Final internal derivatives :

--------------------------------------------------------------------------------
   No.  Atomic          a             b             c           Radius
        Label          (eV)          (eV)          (eV)        (eV/Angs)
--------------------------------------------------------------------------------
      1 Sr    c       0.000000      0.000000      0.000000      0.000000
      2 Ti    c      -0.000110      0.000075     -0.000076      0.000000
      3 O     c       0.000623      0.000018      0.000021      0.000000
      4 O     c       0.000129     -0.000078      0.000008      0.000000
      5 O     c       0.000100     -0.000001      0.000023      0.000000
      6 Sr    c      -0.000117      0.000010      0.000066      0.000000
      7 Ti    c      -0.000087     -0.000062      0.000380      0.000000
      8 O     c       0.000162      0.000006      0.000020      0.000000
      9 O     c      -0.000188      0.000092      0.000059      0.000000
     10 O     c      -0.000198     -0.000019     -0.000542      0.000000
     11 Sr    c      -0.000072     -0.000011      0.000009      0.000000
     12 Ti    c      -0.000438     -0.000199     -0.000204      0.000000
     13 O     c       0.000418     -0.000006      0.000041      0.000000
     14 O     c      -0.000125      0.000180     -0.000003      0.000000
     15 O     c      -0.000054      0.000018      0.000197      0.000000
--------------------------------------------------------------------------------
  Maximum abs         0.000623      0.000199      0.000542      0.000000
--------------------------------------------------------------------------------


  Time to end of optimisation =       0.0351 seconds

 Exiting ------OPTIONS------

  Peak dynamic memory used =       0.60 MB 


  Timing analysis for GULP :

--------------------------------------------------------------------------------
  Task / Subroutine                                          Time (Seconds)
--------------------------------------------------------------------------------
  Calculation of reciprocal space energy and derivatives          0.0032
  Calculation of real space energy and derivatives                0.0242
  Calculation of matrix inversion                                 0.0001
--------------------------------------------------------------------------------
  Total CPU time                                                  0.0351
--------------------------------------------------------------------------------


  Job Finished at 16:21.36  3rd February   2020                               

