********************************************************************************
*                       GENERAL UTILITY LATTICE PROGRAM                        *
*                                 Julian Gale                                  *
*                       Curtin Institute for Computation                       *
*                           Department of Chemistry                            *
*                    Curtin University, Western Australia                      *
********************************************************************************
* Version = 5.1.1 * Last modified =  25th August 2019                          *
********************************************************************************
*  optimise     - perform optimisation run                                     *
*  conp         - constant pressure calculation                                *
*  nosymmetry   - turn off symmetry after initial structure generation         *
*  full         - generate full unit cell when symmetry is removed             *
********************************************************************************
* ASE calculation                                                              *
********************************************************************************


  Job Started  at 16:21.49  3rd February   2020                               

  Number of CPUs =     1


  Total number of configurations input =      1

********************************************************************************
*  Input for Configuration =   1                                               *
********************************************************************************

  Formula = Sr3Ti3O9                                                    

  Number of irreducible atoms/shells =      15


  Total number atoms/shells =      15

  Dimensionality = 3               :  Bulk   



  Cartesian lattice vectors (Angstroms) :

       12.000000    0.000000    0.000000
        0.000000    4.000000    0.000000
        0.000000    0.000000    4.000000

  Cell parameters (Angstroms/Degrees):

  a =      12.0000    alpha =  90.0000
  b =       4.0000    beta  =  90.0000
  c =       4.0000    gamma =  90.0000

  Initial cell volume =         192.000000 Angs**3

  Temperature of configuration =  0.000     K 

  Pressure of configuration =         0.000 GPa 

  Fractional coordinates of asymmetric unit :

--------------------------------------------------------------------------------
   No.  Atomic       x           y          z         Charge      Occupancy
        Label      (Frac)      (Frac)     (Frac)        (e)         (Frac)  
--------------------------------------------------------------------------------
      1 Sr    c    0.000190    0.999650    0.998970     2.00000    1.000000    
      2 Ti    c    0.166690 *  0.499990 *  0.500080 *   4.00000    1.000000    
      3 O     c    0.000120 *  0.500020 *  0.499910 *  -2.00000    1.000000    
      4 O     c    0.166650 *  0.000760 *  0.500350 *  -2.00000    1.000000    
      5 O     c    0.166480 *  0.500170 *  0.999790 *  -2.00000    1.000000    
      6 Sr    c    0.333270 *  0.000190 *  0.999880 *   2.00000    1.000000    
      7 Ti    c    0.499880 *  0.500160 *  0.499950 *   4.00000    1.000000    
      8 O     c    0.333310 *  0.500280 *  0.500230 *  -2.00000    1.000000    
      9 O     c    0.499980 *  0.000390 *  0.500550 *  -2.00000    1.000000    
     10 O     c    0.499970 *  0.500230 *  0.999930 *  -2.00000    1.000000    
     11 Sr    c    0.666660 *  0.000170 *  0.000010 *   2.00000    1.000000    
     12 Ti    c    0.833320 *  0.500220 *  0.499760 *   4.00000    1.000000    
     13 O     c    0.666570 *  0.500210 *  0.499940 *  -2.00000    1.000000    
     14 O     c    0.833550 *  0.999820 *  0.499470 *  -2.00000    1.000000    
     15 O     c    0.833360 *  0.499480 *  0.000360 *  -2.00000    1.000000    
--------------------------------------------------------------------------------



********************************************************************************
*  General input information                                                   *
********************************************************************************

  Species output for all configurations : 

--------------------------------------------------------------------------------
  Species    Type    Atomic    Atomic    Charge       Radii (Angs)     Library
                     Number     Mass       (e)     Cova   Ionic  VDW   Symbol
--------------------------------------------------------------------------------
    Sr       Core       38      87.62   2.000000   1.120  0.000  1.670          
    Ti       Core       22      47.88   4.000000   1.470  0.000  2.190          
    O        Core        8      16.00  -2.000000   0.730  0.000  1.360          
--------------------------------------------------------------------------------


  Lattice summation method               =    Ewald          (3-D)
                                         =    Parry          (2-D)
                                         =    Saunders et al (1-D)
  Accuracy factor for lattice sums       =   12.000


  Time limit =      15.00 seconds

  Maximum range for interatomic potentials =    100000.000000 Angstroms

  General interatomic potentials :

--------------------------------------------------------------------------------
Atom  Types   Potential      Parameter       Value         Units   Cutoffs(Ang)
  1     2                                                            Min /  Max 
--------------------------------------------------------------------------------
O    c Sr   c Buckingham    Buckingham A     1952.3900    eV        0.000 10.000
                            Buckingham rho  0.33685000    Ang       
                            Buckingham C     19.220000    eV*Ang^6  
--------------------------------------------------------------------------------
O    c Ti   c Buckingham    Buckingham A     4590.7279    eV        0.000 10.000
                            Buckingham rho  0.26100000    Ang       
                            Buckingham C     0.0000000    eV*Ang^6  
--------------------------------------------------------------------------------
O    c O    c Buckingham    Buckingham A     1388.7700    eV        0.000 10.000
                            Buckingham rho  0.36262000    Ang       
                            Buckingham C     175.00000    eV*Ang^6  
--------------------------------------------------------------------------------
 Calling ------OPTIONS------

********************************************************************************
*  Output for configuration   1                                                *
********************************************************************************


  Components of energy : 

--------------------------------------------------------------------------------
  Interatomic potentials     =          59.32138710 eV    
  Monopole - monopole (real) =        -234.57440250 eV    
  Monopole - monopole (recip)=        -300.12338576 eV    
  Monopole - monopole (total)=        -534.69778826 eV    
--------------------------------------------------------------------------------
  Total lattice energy       =        -475.37640116 eV    
--------------------------------------------------------------------------------
  Total lattice energy       =          -45866.5559 kJ/(mole unit cells)
--------------------------------------------------------------------------------


  Number of variables =       48

  Maximum number of calculations  =          1000
  Maximum Hessian update interval =            10
  Maximum step size               =   1.000000000
  Maximum parameter tolerance     =   0.000010000
  Maximum function  tolerance     =   0.000010000
  Maximum gradient  tolerance     =   0.001000000
  Maximum gradient  component     =   0.010000000

  Cell parameters to be optimised using strains

  Newton-Raphson optimiser to be used

  BFGS hessian update to be used

  Lower half triangular hessian to be used

  Start of bulk optimisation :

  Cycle:      0 Energy:      -475.376401  Gnorm:      0.417121  CPU:    0.016
  ** Hessian calculated **
 Line minimisation2
 ALPHA BEFORE:    1.0000000000000000     
  ** Opt : line minimisation
left   ...       0.00000000    -475.37640116
centre ...       0.25000000    -475.46204374
right  ...       0.50000000    -475.52281662

left   ...       0.00000000    -475.37640116
centre ...       0.25000000    -475.46204374
right  ...       0.50000000    -475.52281662
new    ...       0.98591299    -475.56714964

__s__    ...       0.48591299

left   ...       0.25000000    -475.46204374
centre ...       0.50000000    -475.52281662
right  ...       0.98591299    -475.56714964
new    ...       0.96402976    -475.56730406

__s__    ...      -0.02188323

 ALPHA AFTER:   0.96402975722730788     
  Cycle:      1 Energy:      -475.567304  Gnorm:      0.003817  CPU:    0.027
 Line minimisation2
 ALPHA BEFORE:    49.046466898979745     
  ** Opt : line minimisation
left   ...       0.00000000    -475.56730406
centre ...       1.00000000    -475.56731789
right  ...       2.00000000    -475.56729528

left   ...       0.00000000    -475.56730406
centre ...       1.00000000    -475.56731789
right  ...       2.00000000    -475.56729528
new    ...       1.00000000    -475.56731789

__s__    ...      -1.00000000

 ALPHA AFTER:    1.0000000000000000     
  Cycle:      2 Energy:      -475.567318  Gnorm:      0.000483  CPU:    0.032
 Line minimisation2
 ALPHA BEFORE:    6.9094590759589973     
  ** Opt : line minimisation
left   ...       0.00000000    -475.56731789
centre ...       1.00000000    -475.56731824
right  ...       2.00000000    -475.56731785

left   ...       0.00000000    -475.56731789
centre ...       1.00000000    -475.56731824
right  ...       2.00000000    -475.56731785
new    ...       1.00000000    -475.56731824

__s__    ...      -1.00000000

 ALPHA AFTER:    1.0000000000000000     


  **** Optimisation achieved ****


  Final energy =    -475.56731824 eV
  Final Gnorm  =       0.00003218

  Components of energy : 

--------------------------------------------------------------------------------
  Interatomic potentials     =          65.00958388 eV    
  Monopole - monopole (real) =        -237.15342282 eV    
  Monopole - monopole (recip)=        -303.42347930 eV    
  Monopole - monopole (total)=        -540.57690212 eV    
--------------------------------------------------------------------------------
  Total lattice energy       =        -475.56731824 eV    
--------------------------------------------------------------------------------
  Total lattice energy       =          -45884.9765 kJ/(mole unit cells)
--------------------------------------------------------------------------------

  Final fractional coordinates of atoms :

--------------------------------------------------------------------------------
   No.  Atomic        x           y          z          Radius
        Label       (Frac)      (Frac)     (Frac)       (Angs) 
--------------------------------------------------------------------------------
     1  Sr    c     0.000190    0.999650    0.998970    0.000000
     2  Ti    c     0.166857    0.499650    0.498970    0.000000
     3  O     c     0.000190    0.499650    0.498970    0.000000
     4  O     c     0.166857    0.999649    0.498970    0.000000
     5  O     c     0.166857    0.499650    0.998971    0.000000
     6  Sr    c     0.333523    0.999650    0.998970    0.000000
     7  Ti    c     0.500190    0.499650    0.498970    0.000000
     8  O     c     0.333523    0.499650    0.498970    0.000000
     9  O     c     0.500190    0.999650    0.498970    0.000000
    10  O     c     0.500190    0.499650    0.998970    0.000000
    11  Sr    c     0.666857    0.999650    0.998971    0.000000
    12  Ti    c     0.833523    0.499650    0.498971    0.000000
    13  O     c     0.666856    0.499650    0.498970    0.000000
    14  O     c     0.833523    0.999650    0.498970    0.000000
    15  O     c     0.833523    0.499650    0.998970    0.000000
--------------------------------------------------------------------------------

  Final Cartesian lattice vectors (Angstroms) :

       11.869492    0.000000   -0.000000
        0.000000    3.956495   -0.000000
       -0.000000   -0.000000    3.956496


  Final cell parameters and derivatives :

--------------------------------------------------------------------------------
       a           11.869492 Angstrom     dE/de1(xx)     0.000721 eV/strain
       b            3.956495 Angstrom     dE/de2(yy)     0.000578 eV/strain
       c            3.956496 Angstrom     dE/de3(zz)     0.000644 eV/strain
       alpha       90.000000 Degrees      dE/de4(yz)    -0.000003 eV/strain
       beta        90.000000 Degrees      dE/de5(xz)    -0.000001 eV/strain
       gamma       90.000000 Degrees      dE/de6(xy)     0.000001 eV/strain
--------------------------------------------------------------------------------

  Primitive cell volume =           185.803373 Angs**3

  Density of cell =      4.919939 g/cm**3

  Non-primitive cell volume =           185.803373 Angs**3


  Final internal derivatives :

--------------------------------------------------------------------------------
   No.  Atomic          a             b             c           Radius
        Label          (eV)          (eV)          (eV)        (eV/Angs)
--------------------------------------------------------------------------------
      1 Sr    c       0.000000      0.000000      0.000000      0.000000
      2 Ti    c      -0.000278      0.000302     -0.000053      0.000000
      3 O     c       0.000205      0.000030      0.000059      0.000000
      4 O     c       0.000103     -0.000408      0.000003      0.000000
      5 O     c       0.000168      0.000043      0.000091      0.000000
      6 Sr    c       0.000035      0.000042     -0.000059      0.000000
      7 Ti    c       0.000167      0.000096      0.000017      0.000000
      8 O     c      -0.000165      0.000006     -0.000001      0.000000
      9 O     c      -0.000108     -0.000124     -0.000028      0.000000
     10 O     c      -0.000112      0.000004      0.000043      0.000000
     11 Sr    c      -0.000005      0.000008      0.000031      0.000000
     12 Ti    c       0.000433     -0.000150      0.000262      0.000000
     13 O     c      -0.000281     -0.000004      0.000001      0.000000
     14 O     c      -0.000164      0.000134      0.000071      0.000000
     15 O     c      -0.000096      0.000010     -0.000389      0.000000
--------------------------------------------------------------------------------
  Maximum abs         0.000433      0.000408      0.000389      0.000000
--------------------------------------------------------------------------------


  Time to end of optimisation =       0.0363 seconds

 Exiting ------OPTIONS------

  Peak dynamic memory used =       0.60 MB 


  Timing analysis for GULP :

--------------------------------------------------------------------------------
  Task / Subroutine                                          Time (Seconds)
--------------------------------------------------------------------------------
  Calculation of reciprocal space energy and derivatives          0.0037
  Calculation of real space energy and derivatives                0.0240
  Calculation of matrix inversion                                 0.0001
--------------------------------------------------------------------------------
  Total CPU time                                                  0.0364
--------------------------------------------------------------------------------


  Job Finished at 16:21.49  3rd February   2020                               

