********************************************************************************
*                       GENERAL UTILITY LATTICE PROGRAM                        *
*                                 Julian Gale                                  *
*                       Curtin Institute for Computation                       *
*                           Department of Chemistry                            *
*                    Curtin University, Western Australia                      *
********************************************************************************
* Version = 5.1.1 * Last modified =  25th August 2019                          *
********************************************************************************
*  optimise     - perform optimisation run                                     *
*  conp         - constant pressure calculation                                *
*  nosymmetry   - turn off symmetry after initial structure generation         *
*  full         - generate full unit cell when symmetry is removed             *
********************************************************************************
* ASE calculation                                                              *
********************************************************************************


  Job Started  at 16:21.57  3rd February   2020                               

  Number of CPUs =     1


  Total number of configurations input =      1

********************************************************************************
*  Input for Configuration =   1                                               *
********************************************************************************

  Formula = Sr3Ti3O9                                                    

  Number of irreducible atoms/shells =      15


  Total number atoms/shells =      15

  Dimensionality = 3               :  Bulk   



  Cartesian lattice vectors (Angstroms) :

       12.000000    0.000000    0.000000
        0.000000    4.000000    0.000000
        0.000000    0.000000    4.000000

  Cell parameters (Angstroms/Degrees):

  a =      12.0000    alpha =  90.0000
  b =       4.0000    beta  =  90.0000
  c =       4.0000    gamma =  90.0000

  Initial cell volume =         192.000000 Angs**3

  Temperature of configuration =  0.000     K 

  Pressure of configuration =         0.000 GPa 

  Fractional coordinates of asymmetric unit :

--------------------------------------------------------------------------------
   No.  Atomic       x           y          z         Charge      Occupancy
        Label      (Frac)      (Frac)     (Frac)        (e)         (Frac)  
--------------------------------------------------------------------------------
      1 Sr    c    0.000210    0.999990    0.999350     2.00000    1.000000    
      2 Ti    c    0.166560 *  0.500320 *  0.500510 *   4.00000    1.000000    
      3 O     c    0.999940 *  0.500660 *  0.499730 *  -2.00000    1.000000    
      4 O     c    0.166490 *  0.999610 *  0.500180 *  -2.00000    1.000000    
      5 O     c    0.166580 *  0.500320 *  0.000480 *  -2.00000    1.000000    
      6 Sr    c    0.333260 *  0.999710 *  0.999870 *   2.00000    1.000000    
      7 Ti    c    0.500070 *  0.499440 *  0.499690 *   4.00000    1.000000    
      8 O     c    0.333230 *  0.500130 *  0.499640 *  -2.00000    1.000000    
      9 O     c    0.499990 *  0.999590 *  0.499730 *  -2.00000    1.000000    
     10 O     c    0.499890 *  0.500080 *  0.999710 *  -2.00000    1.000000    
     11 Sr    c    0.666680 *  0.000770 *  0.000160 *   2.00000    1.000000    
     12 Ti    c    0.832980 *  0.499670 *  0.499780 *   4.00000    1.000000    
     13 O     c    0.666610 *  0.500020 *  0.500160 *  -2.00000    1.000000    
     14 O     c    0.833190 *  0.000110 *  0.499260 *  -2.00000    1.000000    
     15 O     c    0.833220 *  0.500230 *  0.000250 *  -2.00000    1.000000    
--------------------------------------------------------------------------------



********************************************************************************
*  General input information                                                   *
********************************************************************************

  Species output for all configurations : 

--------------------------------------------------------------------------------
  Species    Type    Atomic    Atomic    Charge       Radii (Angs)     Library
                     Number     Mass       (e)     Cova   Ionic  VDW   Symbol
--------------------------------------------------------------------------------
    Sr       Core       38      87.62   2.000000   1.120  0.000  1.670          
    Ti       Core       22      47.88   4.000000   1.470  0.000  2.190          
    O        Core        8      16.00  -2.000000   0.730  0.000  1.360          
--------------------------------------------------------------------------------


  Lattice summation method               =    Ewald          (3-D)
                                         =    Parry          (2-D)
                                         =    Saunders et al (1-D)
  Accuracy factor for lattice sums       =   12.000


  Time limit =      15.00 seconds

  Maximum range for interatomic potentials =    100000.000000 Angstroms

  General interatomic potentials :

--------------------------------------------------------------------------------
Atom  Types   Potential      Parameter       Value         Units   Cutoffs(Ang)
  1     2                                                            Min /  Max 
--------------------------------------------------------------------------------
O    c Sr   c Buckingham    Buckingham A     1952.3900    eV        0.000 10.000
                            Buckingham rho  0.33685000    Ang       
                            Buckingham C     19.220000    eV*Ang^6  
--------------------------------------------------------------------------------
O    c Ti   c Buckingham    Buckingham A     4590.7279    eV        0.000 10.000
                            Buckingham rho  0.26100000    Ang       
                            Buckingham C     0.0000000    eV*Ang^6  
--------------------------------------------------------------------------------
O    c O    c Buckingham    Buckingham A     1388.7700    eV        0.000 10.000
                            Buckingham rho  0.36262000    Ang       
                            Buckingham C     175.00000    eV*Ang^6  
--------------------------------------------------------------------------------
 Calling ------OPTIONS------

********************************************************************************
*  Output for configuration   1                                                *
********************************************************************************


  Components of energy : 

--------------------------------------------------------------------------------
  Interatomic potentials     =          59.32154071 eV    
  Monopole - monopole (real) =        -234.57411621 eV    
  Monopole - monopole (recip)=        -300.12331377 eV    
  Monopole - monopole (total)=        -534.69742998 eV    
--------------------------------------------------------------------------------
  Total lattice energy       =        -475.37588927 eV    
--------------------------------------------------------------------------------
  Total lattice energy       =          -45866.5065 kJ/(mole unit cells)
--------------------------------------------------------------------------------


  Number of variables =       48

  Maximum number of calculations  =          1000
  Maximum Hessian update interval =            10
  Maximum step size               =   1.000000000
  Maximum parameter tolerance     =   0.000010000
  Maximum function  tolerance     =   0.000010000
  Maximum gradient  tolerance     =   0.001000000
  Maximum gradient  component     =   0.010000000

  Cell parameters to be optimised using strains

  Newton-Raphson optimiser to be used

  BFGS hessian update to be used

  Lower half triangular hessian to be used

  Start of bulk optimisation :

  Cycle:      0 Energy:      -475.375889  Gnorm:      0.419595  CPU:    0.015
  ** Hessian calculated **
 Line minimisation2
 ALPHA BEFORE:    1.0000000000000000     
  ** Opt : line minimisation
left   ...       0.00000000    -475.37588927
centre ...       0.25000000    -475.46176125
right  ...       0.50000000    -475.52269656

left   ...       0.00000000    -475.37588927
centre ...       0.25000000    -475.46176125
right  ...       0.50000000    -475.52269656
new    ...       0.98590051    -475.56714849

__s__    ...       0.48590051

left   ...       0.25000000    -475.46176125
centre ...       0.50000000    -475.52269656
right  ...       0.98590051    -475.56714849
new    ...       0.96403222    -475.56730312

__s__    ...      -0.02186829

 ALPHA AFTER:   0.96403221812102147     
  Cycle:      1 Energy:      -475.567303  Gnorm:      0.004425  CPU:    0.021
 Line minimisation2
 ALPHA BEFORE:    63.410538031027194     
  ** Opt : line minimisation
left   ...       0.00000000    -475.56730312
centre ...       1.00000000    -475.56731794
right  ...       2.00000000    -475.56729493

left   ...       0.00000000    -475.56730312
centre ...       1.00000000    -475.56731794
right  ...       2.00000000    -475.56729493
new    ...       1.00000000    -475.56731794

__s__    ...      -1.00000000

 ALPHA AFTER:    1.0000000000000000     
  Cycle:      2 Energy:      -475.567318  Gnorm:      0.000656  CPU:    0.025
 Line minimisation2
 ALPHA BEFORE:    7.0161449992048235     
  ** Opt : line minimisation
left   ...       0.00000000    -475.56731794
centre ...       1.00000000    -475.56731824
right  ...       2.00000000    -475.56731790

left   ...       0.00000000    -475.56731794
centre ...       1.00000000    -475.56731824
right  ...       2.00000000    -475.56731790
new    ...       1.00000000    -475.56731824

__s__    ...      -1.00000000

 ALPHA AFTER:    1.0000000000000000     


  **** Optimisation achieved ****


  Final energy =    -475.56731824 eV
  Final Gnorm  =       0.00003194

  Components of energy : 

--------------------------------------------------------------------------------
  Interatomic potentials     =          65.00961582 eV    
  Monopole - monopole (real) =        -237.15343684 eV    
  Monopole - monopole (recip)=        -303.42349723 eV    
  Monopole - monopole (total)=        -540.57693406 eV    
--------------------------------------------------------------------------------
  Total lattice energy       =        -475.56731824 eV    
--------------------------------------------------------------------------------
  Total lattice energy       =          -45884.9765 kJ/(mole unit cells)
--------------------------------------------------------------------------------

  Final fractional coordinates of atoms :

--------------------------------------------------------------------------------
   No.  Atomic        x           y          z          Radius
        Label       (Frac)      (Frac)     (Frac)       (Angs) 
--------------------------------------------------------------------------------
     1  Sr    c     0.000210    0.999990    0.999350    0.000000
     2  Ti    c     0.166877    0.499990    0.499350    0.000000
     3  O     c     0.000210    0.499991    0.499350    0.000000
     4  O     c     0.166877    0.999991    0.499350    0.000000
     5  O     c     0.166877    0.499991    0.999350    0.000000
     6  Sr    c     0.333543    0.999990    0.999350    0.000000
     7  Ti    c     0.500210    0.499991    0.499350    0.000000
     8  O     c     0.333543    0.499991    0.499350    0.000000
     9  O     c     0.500210    0.999991    0.499350    0.000000
    10  O     c     0.500210    0.499990    0.999350    0.000000
    11  Sr    c     0.666877    0.999991    0.999350    0.000000
    12  Ti    c     0.833543    0.499991    0.499350    0.000000
    13  O     c     0.666877    0.499990    0.499350    0.000000
    14  O     c     0.833543    0.999990    0.499350    0.000000
    15  O     c     0.833543    0.499990    0.999349    0.000000
--------------------------------------------------------------------------------

  Final Cartesian lattice vectors (Angstroms) :

       11.869489   -0.000000    0.000000
       -0.000000    3.956495    0.000000
        0.000000    0.000000    3.956497


  Final cell parameters and derivatives :

--------------------------------------------------------------------------------
       a           11.869489 Angstrom     dE/de1(xx)     0.000597 eV/strain
       b            3.956495 Angstrom     dE/de2(yy)     0.000530 eV/strain
       c            3.956497 Angstrom     dE/de3(zz)     0.000624 eV/strain
       alpha       90.000000 Degrees      dE/de4(yz)     0.000001 eV/strain
       beta        90.000000 Degrees      dE/de5(xz)     0.000002 eV/strain
       gamma       90.000000 Degrees      dE/de6(xy)    -0.000000 eV/strain
--------------------------------------------------------------------------------

  Primitive cell volume =           185.803340 Angs**3

  Density of cell =      4.919940 g/cm**3

  Non-primitive cell volume =           185.803340 Angs**3


  Final internal derivatives :

--------------------------------------------------------------------------------
   No.  Atomic          a             b             c           Radius
        Label          (eV)          (eV)          (eV)        (eV/Angs)
--------------------------------------------------------------------------------
      1 Sr    c       0.000000      0.000000      0.000000      0.000000
      2 Ti    c       0.000131     -0.000366      0.000005      0.000000
      3 O     c      -0.000279     -0.000025      0.000059      0.000000
      4 O     c       0.000001      0.000497      0.000043      0.000000
      5 O     c      -0.000019     -0.000037     -0.000123      0.000000
      6 Sr    c       0.000093     -0.000066      0.000015      0.000000
      7 Ti    c       0.000171      0.000062      0.000009      0.000000
      8 O     c      -0.000364     -0.000016      0.000026      0.000000
      9 O     c       0.000098      0.000035     -0.000021      0.000000
     10 O     c       0.000131     -0.000044      0.000012      0.000000
     11 Sr    c       0.000131      0.000048      0.000047      0.000000
     12 Ti    c       0.000347      0.000222      0.000282      0.000000
     13 O     c      -0.000028     -0.000056     -0.000020      0.000000
     14 O     c      -0.000256     -0.000181      0.000057      0.000000
     15 O     c      -0.000256     -0.000012     -0.000414      0.000000
--------------------------------------------------------------------------------
  Maximum abs         0.000364      0.000497      0.000414      0.000000
--------------------------------------------------------------------------------


  Time to end of optimisation =       0.0293 seconds

 Exiting ------OPTIONS------

  Peak dynamic memory used =       0.60 MB 


  Timing analysis for GULP :

--------------------------------------------------------------------------------
  Task / Subroutine                                          Time (Seconds)
--------------------------------------------------------------------------------
  Calculation of reciprocal space energy and derivatives          0.0032
  Calculation of real space energy and derivatives                0.0187
--------------------------------------------------------------------------------
  Total CPU time                                                  0.0293
--------------------------------------------------------------------------------


  Job Finished at 16:21.57  3rd February   2020                               

