********************************************************************************
*                       GENERAL UTILITY LATTICE PROGRAM                        *
*                                 Julian Gale                                  *
*                       Curtin Institute for Computation                       *
*                           Department of Chemistry                            *
*                    Curtin University, Western Australia                      *
********************************************************************************
* Version = 5.1.1 * Last modified =  25th August 2019                          *
********************************************************************************
*  optimise     - perform optimisation run                                     *
*  conp         - constant pressure calculation                                *
*  nosymmetry   - turn off symmetry after initial structure generation         *
*  full         - generate full unit cell when symmetry is removed             *
********************************************************************************
* ASE calculation                                                              *
********************************************************************************


  Job Started  at 16:21.22  3rd February   2020                               

  Number of CPUs =     1


  Total number of configurations input =      1

********************************************************************************
*  Input for Configuration =   1                                               *
********************************************************************************

  Formula = O9Sr3Ti3                                                    

  Number of irreducible atoms/shells =      15


  Total number atoms/shells =      15

  Dimensionality = 3               :  Bulk   



  Cartesian lattice vectors (Angstroms) :

        4.000000    0.000000    0.000000
        0.000000    4.000000    0.000000
        0.000000    0.000000    8.000000

  Cell parameters (Angstroms/Degrees):

  a =       4.0000    alpha =  90.0000
  b =       4.0000    beta  =  90.0000
  c =       8.0000    gamma =  90.0000

  Initial cell volume =         128.000000 Angs**3

  Temperature of configuration =  0.000     K 

  Pressure of configuration =         0.000 GPa 

  Fractional coordinates of asymmetric unit :

--------------------------------------------------------------------------------
   No.  Atomic       x           y          z         Charge      Occupancy
        Label      (Frac)      (Frac)     (Frac)        (e)         (Frac)  
--------------------------------------------------------------------------------
      1 O     c    0.500000    0.500000    0.750000    -2.00000    1.000000    
      2 O     c    0.500000 *  0.000000 *  0.750000 *  -2.00000    1.000000    
      3 O     c    0.000000 *  0.500000 *  0.750000 *  -2.00000    1.000000    
      4 O     c    0.000000 *  0.500000 *  0.000000 *  -2.00000    1.000000    
      5 O     c    0.000000 *  0.000000 *  0.250000 *  -2.00000    1.000000    
      6 O     c    0.500000 *  0.000000 *  0.250000 *  -2.00000    1.000000    
      7 O     c    0.500000 *  0.500000 *  0.250000 *  -2.00000    1.000000    
      8 O     c    0.500000 *  0.500000 *  0.500000 *  -2.00000    1.000000    
      9 O     c    0.500000 *  0.000000 *  0.500000 *  -2.00000    1.000000    
     10 Sr    c    0.250000 *  0.750000 *  0.375000 *   2.00000    1.000000    
     11 Sr    c    0.250000 *  0.750000 *  0.875000 *   2.00000    1.000000    
     12 Sr    c    0.250000 *  0.250000 *  0.625000 *   2.00000    1.000000    
     13 Ti    c    0.250000 *  0.750000 *  0.625000 *   4.00000    1.000000    
     14 Ti    c    0.750000 *  0.250000 *  0.875000 *   4.00000    1.000000    
     15 Ti    c    0.750000 *  0.750000 *  0.375000 *   4.00000    1.000000    
--------------------------------------------------------------------------------



********************************************************************************
*  General input information                                                   *
********************************************************************************

  Species output for all configurations : 

--------------------------------------------------------------------------------
  Species    Type    Atomic    Atomic    Charge       Radii (Angs)     Library
                     Number     Mass       (e)     Cova   Ionic  VDW   Symbol
--------------------------------------------------------------------------------
    O        Core        8      16.00  -2.000000   0.730  0.000  1.360          
    Sr       Core       38      87.62   2.000000   1.120  0.000  1.670          
    Ti       Core       22      47.88   4.000000   1.470  0.000  2.190          
--------------------------------------------------------------------------------


  Lattice summation method               =    Ewald          (3-D)
                                         =    Parry          (2-D)
                                         =    Saunders et al (1-D)
  Accuracy factor for lattice sums       =   12.000


  Time limit =      15.00 seconds

  Maximum range for interatomic potentials =    100000.000000 Angstroms

  General interatomic potentials :

--------------------------------------------------------------------------------
Atom  Types   Potential      Parameter       Value         Units   Cutoffs(Ang)
  1     2                                                            Min /  Max 
--------------------------------------------------------------------------------
O    c Sr   c Buckingham    Buckingham A     1952.3900    eV        0.000 10.000
                            Buckingham rho  0.33685000    Ang       
                            Buckingham C     19.220000    eV*Ang^6  
--------------------------------------------------------------------------------
O    c Ti   c Buckingham    Buckingham A     4590.7279    eV        0.000 10.000
                            Buckingham rho  0.26100000    Ang       
                            Buckingham C     0.0000000    eV*Ang^6  
--------------------------------------------------------------------------------
O    c O    c Buckingham    Buckingham A     1388.7700    eV        0.000 10.000
                            Buckingham rho  0.36262000    Ang       
                            Buckingham C     175.00000    eV*Ang^6  
--------------------------------------------------------------------------------
 Calling ------OPTIONS------

********************************************************************************
*  Output for configuration   1                                                *
********************************************************************************


  Components of energy : 

--------------------------------------------------------------------------------
  Interatomic potentials     =         283.74069147 eV    
  Monopole - monopole (real) =        -200.67401279 eV    
  Monopole - monopole (recip)=        -313.23454466 eV    
  Monopole - monopole (total)=        -513.90855745 eV    
--------------------------------------------------------------------------------
  Total lattice energy       =        -230.16786598 eV    
--------------------------------------------------------------------------------
  Total lattice energy       =          -22207.6806 kJ/(mole unit cells)
--------------------------------------------------------------------------------


  Number of variables =       48

  Maximum number of calculations  =          1000
  Maximum Hessian update interval =            10
  Maximum step size               =   1.000000000
  Maximum parameter tolerance     =   0.000010000
  Maximum function  tolerance     =   0.000010000
  Maximum gradient  tolerance     =   0.001000000
  Maximum gradient  component     =   0.010000000

  Cell parameters to be optimised using strains

  Newton-Raphson optimiser to be used

  BFGS hessian update to be used

  Lower half triangular hessian to be used

  Start of bulk optimisation :

  Cycle:      0 Energy:      -230.167866  Gnorm:     22.287918  CPU:    0.021
  ** Hessian calculated **
 Line minimisation2
 ALPHA BEFORE:    1.0000000000000000     
  ** Opt : line minimisation
left   ...       0.00000000    -230.16786598
centre ...       0.25000000    -282.18847906
right  ...       0.50000000    -319.03327522

left   ...       0.00000000    -230.16786598
centre ...       0.25000000    -282.18847906
right  ...       0.50000000    -319.03327522
new    ...       0.98196561    -358.58070466

__s__    ...       0.48196561

left   ...       0.25000000    -282.18847906
centre ...       0.50000000    -319.03327522
right  ...       0.98196561    -358.58070466
new    ...       1.20069425    -366.82632422

__s__    ...       0.21872864

left   ...       0.50000000    -319.03327522
centre ...       0.98196561    -358.58070466
right  ...       1.20069425    -366.82632422
new    ...       1.38908470    -370.51648489

__s__    ...       0.18839045

left   ...       0.98196561    -358.58070466
centre ...       1.20069425    -366.82632422
right  ...       1.38908470    -370.51648489
new    ...       1.51505881    -371.56079456

__s__    ...       0.12597410

left   ...       1.20069425    -366.82632422
centre ...       1.38908470    -370.51648489
right  ...       1.51505881    -371.56079456
new    ...       1.56740424    -371.70634515

__s__    ...       0.05234544

 ALPHA AFTER:    1.5674042425750139     
  Cycle:      1 Energy:      -371.706345  Gnorm:      9.126529  CPU:    0.036
  ** Hessian calculated **
 Line minimisation2
 ALPHA BEFORE:    1.0000000000000000     
  ** Opt : line minimisation
left   ...       0.00000000    -371.70634515
centre ...       0.25000000    -369.80206967
right  ...      -0.25000000    -373.59110449

left   ...      -0.25000000    -373.59110449
centre ...       0.00000000    -371.70634515
right  ...       0.25000000    -369.80206967
new    ...      -1.14858648    -377.67424125

__s__    ...      -0.89858648

left   ...      -1.14858648    -377.67424125
centre ...      -0.25000000    -373.59110449
right  ...       0.00000000    -371.70634515
new    ...      -1.57057581    -373.29407070

__s__    ...      -0.42198933

left   ...      -1.57057581    -373.29407070
centre ...      -1.14858648    -377.67424125
right  ...      -0.25000000    -373.59110449
new    ...      -0.90033620    -377.57522385

__s__    ...       0.67023960

left   ...      -1.57057581    -373.29407070
centre ...      -1.14858648    -377.67424125
right  ...      -0.90033620    -377.57522385
new    ...      -1.03686233    -377.80256583

__s__    ...      -0.13652613

 ALPHA AFTER:    1.0368623329766347     
  Cycle:      2 Energy:      -377.802566  Gnorm:      7.543973  CPU:    0.048
  ** Hessian calculated **
 Line minimisation2
 ALPHA BEFORE:    1.0000000000000000     
  ** Opt : line minimisation
left   ...       0.00000000    -377.80256583
centre ...       0.25000000    -392.49481569
right  ...       0.50000000    -397.08191951

left   ...       0.00000000    -377.80256583
centre ...       0.25000000    -392.49481569
right  ...       0.50000000    -397.08191951
new    ...       0.48848435    -397.12095831

__s__    ...      -0.01151565

 ALPHA AFTER:   0.48848435260768264     
  Cycle:      3 Energy:      -397.120958  Gnorm:      7.341801  CPU:    0.055
  ** Hessian calculated **
 Line minimisation2
 ALPHA BEFORE:    1.0000000000000000     
  ** Opt : line minimisation
left   ...       0.00000000    -397.12095831
centre ...       0.25000000    -401.50142091
right  ...       0.50000000    -387.11771344

left   ...       0.00000000    -397.12095831
centre ...       0.25000000    -401.50142091
right  ...       0.50000000    -387.11771344
new    ...       0.18336206    -400.96966951

__s__    ...      -0.31663794

left   ...       0.18336206    -400.96966951
centre ...       0.25000000    -401.50142091
right  ...       0.50000000    -387.11771344
new    ...       0.23596438    -401.46151297

__s__    ...       0.05260231

 ALPHA AFTER:   0.25000000000000000     
  Cycle:      4 Energy:      -401.501421  Gnorm:      7.002216  CPU:    0.062
  ** Hessian calculated **
 Line minimisation2
 ALPHA BEFORE:    1.0000000000000000     
  ** Opt : line minimisation
left   ...       0.00000000    -401.50142091
centre ...       0.25000000    -408.72981797
right  ...       0.50000000    -365.18669215

left   ...       0.00000000    -401.50142091
centre ...       0.25000000    -408.72981797
right  ...       0.50000000    -365.18669215
new    ...       0.16059277    -411.63425623

__s__    ...      -0.33940723

left   ...       0.00000000    -401.50142091
centre ...       0.16059277    -411.63425623
right  ...       0.25000000    -408.72981797
new    ...       0.16281256    -411.66406729

__s__    ...       0.00221979

 ALPHA AFTER:   0.16281256054008753     
  Cycle:      5 Energy:      -411.664067  Gnorm:      9.447515  CPU:    0.069
  ** Hessian calculated **
 Line minimisation2
 ALPHA BEFORE:    1.0000000000000000     
  ** Opt : line minimisation
left   ...       0.00000000    -411.66406729
centre ...       0.25000000    -412.51851079
right  ...       0.50000000    -414.84644990

left   ...       0.00000000    -411.66406729
centre ...       0.25000000    -412.51851079
right  ...       0.50000000    -414.84644990
new    ...       0.90969269    -437.01777372

__s__    ...       0.40969269

left   ...       0.25000000    -412.51851079
centre ...       0.50000000    -414.84644990
right  ...       0.90969269    -437.01777372
new    ...       1.31938538    -414.16004346

__s__    ...       0.40969269

left   ...       0.50000000    -414.84644990
centre ...       0.90969269    -437.01777372
right  ...       1.31938538    -414.16004346
new    ...       0.90969269    -437.01777372

__s__    ...      -0.40969269

 ALPHA AFTER:   0.90969268917806956     
  Cycle:      6 Energy:      -437.017774  Gnorm:      5.376614  CPU:    0.079
  ** Hessian calculated **
 Line minimisation2
 ALPHA BEFORE:    1.0000000000000000     
  ** Opt : line minimisation
left   ...       0.00000000    -437.01777372
centre ...       0.25000000    -441.80154549
right  ...       0.50000000    -361.89180871

left   ...       0.00000000    -437.01777372
centre ...       0.25000000    -441.80154549
right  ...       0.50000000    -361.89180871
new    ...       0.13912083    -443.09302331

__s__    ...      -0.36087917

left   ...       0.00000000    -437.01777372
centre ...       0.13912083    -443.09302331
right  ...       0.25000000    -441.80154549
new    ...       0.16824002    -443.61862044

__s__    ...       0.02911919

left   ...       0.13912083    -443.09302331
centre ...       0.16824002    -443.61862044
right  ...       0.25000000    -441.80154549
new    ...       0.17852692    -443.68926912

__s__    ...       0.01028690

 ALPHA AFTER:   0.17852691775219651     
  Cycle:      7 Energy:      -443.689269  Gnorm:      3.412129  CPU:    0.089
  ** Hessian calculated **
 Line minimisation2
 ALPHA BEFORE:    1.0000000000000000     
  ** Opt : line minimisation
left   ...       0.00000000    -443.68926912
centre ...       0.25000000    -449.48468537
right  ...       0.50000000    -451.16229205

left   ...       0.00000000    -443.68926912
centre ...       0.25000000    -449.48468537
right  ...       0.50000000    -451.16229205
new    ...       0.47685067    -451.25268614

__s__    ...      -0.02314933

 ALPHA AFTER:   0.47685067108025103     
  Cycle:      8 Energy:      -451.252686  Gnorm:      2.999858  CPU:    0.097
 Line minimisation2
 ALPHA BEFORE:   0.61032781722294349     
  ** Opt : line minimisation
left   ...       0.00000000    -451.25268614
centre ...       0.15258195    -453.13098239
right  ...       0.30516391    -454.31046104

left   ...       0.00000000    -451.25268614
centre ...       0.15258195    -453.13098239
right  ...       0.30516391    -454.31046104
new    ...       0.48640387    -454.60767574

__s__    ...       0.18123997

 ALPHA AFTER:   0.48640387481903924     
  Cycle:      9 Energy:      -454.607676  Gnorm:      1.815858  CPU:    0.102
 Line minimisation2
 ALPHA BEFORE:   0.69233843995848465     
  ** Opt : line minimisation
left   ...       0.00000000    -454.60767574
centre ...       0.17308461    -455.62619938
right  ...       0.34616922    -456.22856947

left   ...       0.00000000    -454.60767574
centre ...       0.17308461    -455.62619938
right  ...       0.34616922    -456.22856947
new    ...       0.51016182    -456.42334449

__s__    ...       0.16399260

 ALPHA AFTER:   0.51016181763419410     
  Cycle:     10 Energy:      -456.423344  Gnorm:      1.266033  CPU:    0.107
 Line minimisation2
 ALPHA BEFORE:   0.54517201385897551     
  ** Opt : line minimisation
left   ...       0.00000000    -456.42334449
centre ...       0.13629300    -456.87153245
right  ...       0.27258601    -457.21618189

left   ...       0.00000000    -456.42334449
centre ...       0.13629300    -456.87153245
right  ...       0.27258601    -457.21618189
new    ...       0.65811908    -457.58236884

__s__    ...       0.38553307

left   ...       0.13629300    -456.87153245
centre ...       0.27258601    -457.21618189
right  ...       0.65811908    -457.58236884
new    ...       0.62230824    -457.58750475

__s__    ...      -0.03581084

 ALPHA AFTER:   0.62230823592967655     
  Cycle:     11 Energy:      -457.587505  Gnorm:      1.257236  CPU:    0.115
 Line minimisation2
 ALPHA BEFORE:   0.64945532183490506     
  ** Opt : line minimisation
left   ...       0.00000000    -457.58750475
centre ...       0.16236383    -458.00423842
right  ...       0.32472766    -458.36868327

left   ...       0.00000000    -457.58750475
centre ...       0.16236383    -458.00423842
right  ...       0.32472766    -458.36868327
new    ...       1.32472766    -459.24027410

__s__    ...       1.00000000

left   ...       0.16236383    -458.00423842
centre ...       0.32472766    -458.36868327
right  ...       1.32472766    -459.24027410
new    ...       1.19365893    -459.27958515

__s__    ...      -0.13106873

 ALPHA AFTER:    1.1936589321302169     
  Cycle:     12 Energy:      -459.279585  Gnorm:      1.945251  CPU:    0.123
 Line minimisation2
 ALPHA BEFORE:   0.79577262142014449     
  ** Opt : line minimisation
left   ...       0.00000000    -459.27958515
centre ...       0.19894316    -459.94556362
right  ...       0.39788631    -460.37135989

left   ...       0.00000000    -459.27958515
centre ...       0.19894316    -459.94556362
right  ...       0.39788631    -460.37135989
new    ...       0.65110220    -460.50572730

__s__    ...       0.25321589

 ALPHA AFTER:   0.65110219679835113     
  Cycle:     13 Energy:      -460.505727  Gnorm:      1.255175  CPU:    0.131
 Line minimisation2
 ALPHA BEFORE:   0.77813739601153331     
  ** Opt : line minimisation
left   ...       0.00000000    -460.50572730
centre ...       0.19453435    -461.20474252
right  ...       0.38906870    -461.65923572

left   ...       0.00000000    -460.50572730
centre ...       0.19453435    -461.20474252
right  ...       0.38906870    -461.65923572
new    ...       0.65338263    -461.86906238

__s__    ...       0.26431393

 ALPHA AFTER:   0.65338262905106614     
  Cycle:     14 Energy:      -461.869062  Gnorm:      1.560276  CPU:    0.138
 Line minimisation2
 ALPHA BEFORE:   0.67273421250616450     
  ** Opt : line minimisation
left   ...       0.00000000    -461.86906238
centre ...       0.16818355    -462.46027952
right  ...       0.33636711    -462.80170964

left   ...       0.00000000    -461.86906238
centre ...       0.16818355    -462.46027952
right  ...       0.33636711    -462.80170964
new    ...       0.48216290    -462.85865348

__s__    ...       0.14579579

 ALPHA AFTER:   0.48216289780719729     
  Cycle:     15 Energy:      -462.858653  Gnorm:      1.236223  CPU:    0.148
 Line minimisation2
 ALPHA BEFORE:   0.38369257693037800     
  ** Opt : line minimisation
left   ...       0.00000000    -462.85865348
centre ...       0.09592314    -463.20809963
right  ...       0.19184629    -463.42807121

left   ...       0.00000000    -462.85865348
centre ...       0.09592314    -463.20809963
right  ...       0.19184629    -463.42807121
new    ...       0.30685390    -463.52087586

__s__    ...       0.11500761

 ALPHA AFTER:   0.30685390283666769     
  Cycle:     16 Energy:      -463.520876  Gnorm:      1.296129  CPU:    0.155
 Line minimisation2
 ALPHA BEFORE:   0.47410740709086413     
  ** Opt : line minimisation
left   ...       0.00000000    -463.52087586
centre ...       0.11852685    -463.82386541
right  ...       0.23705370    -464.02312935

left   ...       0.00000000    -463.52087586
centre ...       0.11852685    -463.82386541
right  ...       0.23705370    -464.02312935
new    ...       0.40548840    -464.12811477

__s__    ...       0.16843470

 ALPHA AFTER:   0.40548840098219058     
  Cycle:     17 Energy:      -464.128115  Gnorm:      1.079191  CPU:    0.162
  ** Hessian calculated **
 Line minimisation2
 ALPHA BEFORE:    1.0000000000000000     
  ** Opt : line minimisation
left   ...       0.00000000    -464.12811477
centre ...       0.25000000    -464.44056274
right  ...       0.50000000    -464.66603507

left   ...       0.00000000    -464.12811477
centre ...       0.25000000    -464.44056274
right  ...       0.50000000    -464.66603507
new    ...       1.02309037    -464.27702978

__s__    ...       0.52309037

left   ...       0.25000000    -464.44056274
centre ...       0.50000000    -464.66603507
right  ...       1.02309037    -464.27702978
new    ...       0.58685594    -464.70584739

__s__    ...      -0.43623444

left   ...       0.50000000    -464.66603507
centre ...       0.58685594    -464.70584739
right  ...       1.02309037    -464.27702978
new    ...       0.62660228    -464.71465995

__s__    ...       0.03974634

 ALPHA AFTER:   0.62660227950482139     
  Cycle:     18 Energy:      -464.714660  Gnorm:      0.966557  CPU:    0.175
  ** Hessian calculated **
 Line minimisation2
 ALPHA BEFORE:    1.0000000000000000     
  ** Opt : line minimisation
left   ...       0.00000000    -464.71465995
centre ...       0.25000000    -465.29848767
right  ...       0.50000000    -465.44886050

left   ...       0.00000000    -464.71465995
centre ...       0.25000000    -465.29848767
right  ...       0.50000000    -465.44886050
new    ...       0.46172922    -465.47107022

__s__    ...      -0.03827078

 ALPHA AFTER:   0.46172922337660982     
  Cycle:     19 Energy:      -465.471070  Gnorm:      0.787555  CPU:    0.185
  ** Hessian calculated **
 Line minimisation2
 ALPHA BEFORE:    1.0000000000000000     
  ** Opt : line minimisation
left   ...       0.00000000    -465.47107022
centre ...       0.25000000    -465.68920329
right  ...       0.50000000    -465.72025212

left   ...       0.00000000    -465.47107022
centre ...       0.25000000    -465.68920329
right  ...       0.50000000    -465.72025212
new    ...       0.41649044    -465.73141593

__s__    ...      -0.08350956

 ALPHA AFTER:   0.41649043947114944     
  Cycle:     20 Energy:      -465.731416  Gnorm:      0.299619  CPU:    0.194
 Line minimisation2
 ALPHA BEFORE:    1.0208023127297148     
  ** Opt : line minimisation
left   ...       0.00000000    -465.73141593
centre ...       0.25520058    -465.76751622
right  ...       0.51040116    -465.79215785

left   ...       0.00000000    -465.73141593
centre ...       0.25520058    -465.76751622
right  ...       0.51040116    -465.79215785
new    ...       0.93160412    -465.80856670

__s__    ...       0.42120297

left   ...       0.25520058    -465.76751622
centre ...       0.51040116    -465.79215785
right  ...       0.93160412    -465.80856670
new    ...       0.94973865    -465.80855928

__s__    ...       0.01813453

 ALPHA AFTER:   0.93160412376597512     
  Cycle:     21 Energy:      -465.808567  Gnorm:      0.277411  CPU:    0.203
 Line minimisation2
 ALPHA BEFORE:   0.88370094728331594     
  ** Opt : line minimisation
left   ...       0.00000000    -465.80856670
centre ...       0.22092524    -465.82968428
right  ...       0.44185047    -465.84483683

left   ...       0.00000000    -465.80856670
centre ...       0.22092524    -465.82968428
right  ...       0.44185047    -465.84483683
new    ...       0.89258998    -465.85687655

__s__    ...       0.45073950

left   ...       0.22092524    -465.82968428
centre ...       0.44185047    -465.84483683
right  ...       0.89258998    -465.85687655
new    ...       0.88143545    -465.85687820

__s__    ...      -0.01115453

 ALPHA AFTER:   0.88143544889658720     
  Cycle:     22 Energy:      -465.856878  Gnorm:      0.190209  CPU:    0.214
 Line minimisation2
 ALPHA BEFORE:    1.1494975301416563     
  ** Opt : line minimisation
left   ...       0.00000000    -465.85687820
centre ...       0.28737438    -465.87268018
right  ...       0.57474877    -465.88373943

left   ...       0.00000000    -465.85687820
centre ...       0.28737438    -465.87268018
right  ...       0.57474877    -465.88373943
new    ...       1.10117106    -465.88970450

__s__    ...       0.52642230

 ALPHA AFTER:    1.1011710647658068     
  Cycle:     23 Energy:      -465.889705  Gnorm:      0.218786  CPU:    0.221
 Line minimisation2
 ALPHA BEFORE:   0.81767997777827262     
  ** Opt : line minimisation
left   ...       0.00000000    -465.88970450
centre ...       0.20441999    -465.90477535
right  ...       0.40883999    -465.91743676

left   ...       0.00000000    -465.88970450
centre ...       0.20441999    -465.90477535
right  ...       0.40883999    -465.91743676
new    ...       1.38084586    -465.94641554

__s__    ...       0.97200587

left   ...       0.20441999    -465.90477535
centre ...       0.40883999    -465.91743676
right  ...       1.38084586    -465.94641554
new    ...       1.44073178    -465.94654666

__s__    ...       0.05988592

 ALPHA AFTER:    1.4407317757705704     
  Cycle:     24 Energy:      -465.946547  Gnorm:      0.225647  CPU:    0.230
 Line minimisation2
 ALPHA BEFORE:    1.4010888573122620     
  ** Opt : line minimisation
left   ...       0.00000000    -465.94654666
centre ...       0.35027221    -465.97620202
right  ...       0.70054443    -466.00215604

left   ...       0.00000000    -465.94654666
centre ...       0.35027221    -465.97620202
right  ...       0.70054443    -466.00215604
new    ...       1.70054443    -466.04509559

__s__    ...       1.00000000

left   ...       0.35027221    -465.97620202
centre ...       0.70054443    -466.00215604
right  ...       1.70054443    -466.04509559
new    ...       2.13099083    -466.05050152

__s__    ...       0.43044640

 ALPHA AFTER:    2.1309908336134225     
  Cycle:     25 Energy:      -466.050502  Gnorm:      0.313804  CPU:    0.238
 Line minimisation2
 ALPHA BEFORE:    1.4206605557422816     
  ** Opt : line minimisation
left   ...       0.00000000    -466.05050152
centre ...       0.35516514    -466.08955921
right  ...       0.71033028    -466.12440037

left   ...       0.00000000    -466.05050152
centre ...       0.35516514    -466.08955921
right  ...       0.71033028    -466.12440037
new    ...       1.71033028    -466.20076692

__s__    ...       1.00000000

left   ...       0.35516514    -466.08955921
centre ...       0.71033028    -466.12440037
right  ...       1.71033028    -466.20076692
new    ...       2.71033028    -466.22461859

__s__    ...       1.00000000

 ALPHA AFTER:    2.7103302778711407     
  Cycle:     26 Energy:      -466.224619  Gnorm:      0.418980  CPU:    0.248
 Line minimisation2
 ALPHA BEFORE:    1.9047003338067745     
  ** Opt : line minimisation
left   ...       0.00000000    -466.22461859
centre ...       0.47617508    -466.35594553
right  ...       0.95235017    -466.43935862

left   ...       0.00000000    -466.22461859
centre ...       0.47617508    -466.35594553
right  ...       0.95235017    -466.43935862
new    ...       1.54323462    -466.43559691

__s__    ...       0.59088445

 ALPHA AFTER:   0.95235016690338725     
  Cycle:     27 Energy:      -466.439359  Gnorm:      0.401327  CPU:    0.253
 Line minimisation2
 ALPHA BEFORE:   0.63490011126892476     
  ** Opt : line minimisation
left   ...       0.00000000    -466.43935862
centre ...       0.15872503    -466.52430364
right  ...       0.31745006    -466.58086023

left   ...       0.00000000    -466.43935862
centre ...       0.15872503    -466.52430364
right  ...       0.31745006    -466.58086023
new    ...       0.55430596    -466.61458660

__s__    ...       0.23685590

 ALPHA AFTER:   0.55430595738915001     
  Cycle:     28 Energy:      -466.614587  Gnorm:      0.370922  CPU:    0.258
 Line minimisation2
 ALPHA BEFORE:   0.70772963201675831     
  ** Opt : line minimisation
left   ...       0.00000000    -466.61458660
centre ...       0.17693241    -466.66011976
right  ...       0.35386482    -466.68754956

left   ...       0.00000000    -466.61458660
centre ...       0.17693241    -466.66011976
right  ...       0.35386482    -466.68754956
new    ...       0.53348243    -466.69184257

__s__    ...       0.17961761

 ALPHA AFTER:   0.53348242555575909     
  Cycle:     29 Energy:      -466.691843  Gnorm:      0.339357  CPU:    0.262
  ** Hessian calculated **
 Line minimisation2
 ALPHA BEFORE:    1.0000000000000000     
  ** Opt : line minimisation
left   ...       0.00000000    -466.69184257
centre ...       0.25000000    -466.74365745
right  ...       0.50000000    -466.77684080

left   ...       0.00000000    -466.69184257
centre ...       0.25000000    -466.74365745
right  ...       0.50000000    -466.77684080
new    ...       0.82025791    -466.79180298

__s__    ...       0.32025791

 ALPHA AFTER:   0.82025790942621113     
  Cycle:     30 Energy:      -466.791803  Gnorm:      0.318061  CPU:    0.270
 Line minimisation2
 ALPHA BEFORE:   0.65211413203713708     
  ** Opt : line minimisation
left   ...       0.00000000    -466.79180298
centre ...       0.16302853    -466.81933292
right  ...       0.32605707    -466.84225365

left   ...       0.00000000    -466.79180298
centre ...       0.16302853    -466.81933292
right  ...       0.32605707    -466.84225365
new    ...       1.05525341    -466.88737299

__s__    ...       0.72919635

left   ...       0.16302853    -466.81933292
centre ...       0.32605707    -466.84225365
right  ...       1.05525341    -466.88737299
new    ...       1.04131730    -466.88737632

__s__    ...      -0.01393612

 ALPHA AFTER:    1.0413172960234625     
  Cycle:     31 Energy:      -466.887376  Gnorm:      0.293602  CPU:    0.276
 Line minimisation2
 ALPHA BEFORE:   0.94018187237509365     
  ** Opt : line minimisation
left   ...       0.00000000    -466.88737632
centre ...       0.23504547    -466.92047926
right  ...       0.47009094    -466.94847251

left   ...       0.00000000    -466.88737632
centre ...       0.23504547    -466.92047926
right  ...       0.47009094    -466.94847251
new    ...       1.47009094    -467.00336523

__s__    ...       1.00000000

left   ...       0.23504547    -466.92047926
centre ...       0.47009094    -466.94847251
right  ...       1.47009094    -467.00336523
new    ...       1.49805270    -467.00322104

__s__    ...       0.02796177

 ALPHA AFTER:    1.4700909361875469     
  Cycle:     32 Energy:      -467.003365  Gnorm:      0.306243  CPU:    0.282
 Line minimisation2
 ALPHA BEFORE:    1.0043273741184942     
  ** Opt : line minimisation
left   ...       0.00000000    -467.00336523
centre ...       0.25108184    -467.04720362
right  ...       0.50216369    -467.07180955

left   ...       0.00000000    -467.00336523
centre ...       0.25108184    -467.04720362
right  ...       0.50216369    -467.07180955
new    ...       0.69785591    -467.07652079

__s__    ...       0.19569222

 ALPHA AFTER:   0.69785590634682426     
  Cycle:     33 Energy:      -467.076521  Gnorm:      0.212723  CPU:    0.287
 Line minimisation2
 ALPHA BEFORE:    1.3442666085812887     
  ** Opt : line minimisation
left   ...       0.00000000    -467.07652079
centre ...       0.33606665    -467.11399295
right  ...       0.67213330    -467.13905321

left   ...       0.00000000    -467.07652079
centre ...       0.33606665    -467.11399295
right  ...       0.67213330    -467.13905321
new    ...       1.18263683    -467.15201288

__s__    ...       0.51050353

 ALPHA AFTER:    1.1826368340828628     
  Cycle:     34 Energy:      -467.152013  Gnorm:      0.192202  CPU:    0.292
 Line minimisation2
 ALPHA BEFORE:    1.2376574841784365     
  ** Opt : line minimisation
left   ...       0.00000000    -467.15201288
centre ...       0.30941437    -467.17203882
right  ...       0.61882874    -467.18636785

left   ...       0.00000000    -467.15201288
centre ...       0.30941437    -467.17203882
right  ...       0.61882874    -467.18636785
new    ...       1.24236860    -467.19674352

__s__    ...       0.62353986

left   ...       0.30941437    -467.17203882
centre ...       0.61882874    -467.18636785
right  ...       1.24236860    -467.19674352
new    ...       1.19221283    -467.19694993

__s__    ...      -0.05015577

 ALPHA AFTER:    1.1922128292203917     
  Cycle:     35 Energy:      -467.196950  Gnorm:      0.203626  CPU:    0.298
 Line minimisation2
 ALPHA BEFORE:    1.1207517376369878     
  ** Opt : line minimisation
left   ...       0.00000000    -467.19694993
centre ...       0.28018793    -467.21544348
right  ...       0.56037587    -467.22990642

left   ...       0.00000000    -467.19694993
centre ...       0.28018793    -467.21544348
right  ...       0.56037587    -467.22990642
new    ...       1.42567316    -467.24287171

__s__    ...       0.86529729

left   ...       0.28018793    -467.21544348
centre ...       0.56037587    -467.22990642
right  ...       1.42567316    -467.24287171
new    ...       1.22727444    -467.24388234

__s__    ...      -0.19839872

 ALPHA AFTER:    1.2272744416254495     
  Cycle:     36 Energy:      -467.243882  Gnorm:      0.203138  CPU:    0.304
 Line minimisation2
 ALPHA BEFORE:    1.3338754187781861     
  ** Opt : line minimisation
left   ...       0.00000000    -467.24388234
centre ...       0.33346885    -467.26843797
right  ...       0.66693771    -467.28405516

left   ...       0.00000000    -467.24388234
centre ...       0.33346885    -467.26843797
right  ...       0.66693771    -467.28405516
new    ...       1.08283862    -467.29258497

__s__    ...       0.41590091

 ALPHA AFTER:    1.0828386235354761     
  Cycle:     37 Energy:      -467.292585  Gnorm:      0.164794  CPU:    0.309
 Line minimisation2
 ALPHA BEFORE:   0.82157625859246075     
  ** Opt : line minimisation
left   ...       0.00000000    -467.29258497
centre ...       0.20539406    -467.30566184
right  ...       0.41078813    -467.31685200

left   ...       0.00000000    -467.29258497
centre ...       0.20539406    -467.30566184
right  ...       0.41078813    -467.31685200
new    ...       1.41078813    -467.33340366

__s__    ...       1.00000000

left   ...       0.20539406    -467.30566184
centre ...       0.41078813    -467.31685200
right  ...       1.41078813    -467.33340366
new    ...       1.17379106    -467.33548305

__s__    ...      -0.23699707

 ALPHA AFTER:    1.1737910640091642     
  Cycle:     38 Energy:      -467.335483  Gnorm:      0.152325  CPU:    0.315
 Line minimisation2
 ALPHA BEFORE:    1.4440133028385889     
  ** Opt : line minimisation
left   ...       0.00000000    -467.33548305
centre ...       0.36100333    -467.35585039
right  ...       0.72200665    -467.36914391

left   ...       0.00000000    -467.33548305
centre ...       0.36100333    -467.35585039
right  ...       0.72200665    -467.36914391
new    ...       1.21992303    -467.37563957

__s__    ...       0.49791638

 ALPHA AFTER:    1.2199230298105168     
  Cycle:     39 Energy:      -467.375640  Gnorm:      0.234718  CPU:    0.320
  ** Hessian calculated **
 Line minimisation2
 ALPHA BEFORE:    1.0000000000000000     
  ** Opt : line minimisation
left   ...       0.00000000    -467.37563957
centre ...       0.25000000    -467.39565609
right  ...       0.50000000    -467.40883247

left   ...       0.00000000    -467.37563957
centre ...       0.25000000    -467.39565609
right  ...       0.50000000    -467.40883247
new    ...       0.85658301    -467.41616649

__s__    ...       0.35658301

 ALPHA AFTER:   0.85658300603919835     
  Cycle:     40 Energy:      -467.416166  Gnorm:      0.201774  CPU:    0.327
 Line minimisation2
 ALPHA BEFORE:   0.64562989811226135     
  ** Opt : line minimisation
left   ...       0.00000000    -467.41616649
centre ...       0.16140747    -467.42726544
right  ...       0.32281495    -467.43700623

left   ...       0.00000000    -467.41616649
centre ...       0.16140747    -467.42726544
right  ...       0.32281495    -467.43700623
new    ...       1.32281495    -467.46638455

__s__    ...       1.00000000

left   ...       0.16140747    -467.42726544
centre ...       0.32281495    -467.43700623
right  ...       1.32281495    -467.46638455
new    ...       1.37366006    -467.46651330

__s__    ...       0.05084511

 ALPHA AFTER:    1.3736600632147238     
  Cycle:     41 Energy:      -467.466513  Gnorm:      0.227460  CPU:    0.333
 Line minimisation2
 ALPHA BEFORE:   0.91577337547648252     
  ** Opt : line minimisation
left   ...       0.00000000    -467.46651330
centre ...       0.22894334    -467.49010977
right  ...       0.45788669    -467.51262627

left   ...       0.00000000    -467.46651330
centre ...       0.22894334    -467.49010977
right  ...       0.45788669    -467.51262627
new    ...       1.45788669    -467.59631502

__s__    ...       1.00000000

left   ...       0.22894334    -467.49010977
centre ...       0.45788669    -467.51262627
right  ...       1.45788669    -467.59631502
new    ...       2.45788669    -467.66146994

__s__    ...       1.00000000

left   ...       0.45788669    -467.51262627
centre ...       1.45788669    -467.59631502
right  ...       2.45788669    -467.66146994
new    ...       3.45788669    -467.70802223

__s__    ...       1.00000000

 ALPHA AFTER:    3.4578866877382413     
  Cycle:     42 Energy:      -467.708022  Gnorm:      0.563756  CPU:    0.340
 Line minimisation2
 ALPHA BEFORE:    2.3052577918254942     
  ** Opt : line minimisation
left   ...       0.00000000    -467.70802223
centre ...       0.57631445    -467.79742374
right  ...       1.15262890    -467.88301734

left   ...       0.00000000    -467.70802223
centre ...       0.57631445    -467.79742374
right  ...       1.15262890    -467.88301734
new    ...       2.15262890    -467.97865800

__s__    ...       1.00000000

left   ...       0.57631445    -467.79742374
centre ...       1.15262890    -467.88301734
right  ...       2.15262890    -467.97865800
new    ...       3.07816547    -467.89142683

__s__    ...       0.92553658

left   ...       1.15262890    -467.88301734
centre ...       2.15262890    -467.97865800
right  ...       3.07816547    -467.89142683
new    ...       2.13754026    -467.97819926

__s__    ...      -0.94062522

left   ...       2.13754026    -467.97819926
centre ...       2.15262890    -467.97865800
right  ...       3.07816547    -467.89142683
new    ...       2.25979500    -467.98043989

__s__    ...       0.12225474

 ALPHA AFTER:    2.2597949977242728     
  Cycle:     43 Energy:      -467.980440  Gnorm:      0.670489  CPU:    0.348
 Line minimisation2
 ALPHA BEFORE:    1.5065299984828486     
  ** Opt : line minimisation
left   ...       0.00000000    -467.98043989
centre ...       0.37663250    -468.12662356
right  ...       0.75326500    -468.14145206

left   ...       0.00000000    -467.98043989
centre ...       0.37663250    -468.12662356
right  ...       0.75326500    -468.14145206
new    ...       0.60746627    -468.15692923

__s__    ...      -0.14579873

 ALPHA AFTER:   0.60746627402797193     
  Cycle:     44 Energy:      -468.156929  Gnorm:      0.611083  CPU:    0.353
 Line minimisation2
 ALPHA BEFORE:   0.43995598501644945     
  ** Opt : line minimisation
left   ...       0.00000000    -468.15692923
centre ...       0.10998900    -468.30019177
right  ...       0.21997799    -468.41692047

left   ...       0.00000000    -468.15692923
centre ...       0.10998900    -468.30019177
right  ...       0.21997799    -468.41692047
new    ...       0.64885137    -468.62775159

__s__    ...       0.42887337

left   ...       0.10998900    -468.30019177
centre ...       0.21997799    -468.41692047
right  ...       0.64885137    -468.62775159
new    ...       0.66691312    -468.62814576

__s__    ...       0.01806176

 ALPHA AFTER:   0.66691312115172274     
  Cycle:     45 Energy:      -468.628146  Gnorm:      0.474186  CPU:    0.359
 Line minimisation2
 ALPHA BEFORE:    1.5071932666215606     
  ** Opt : line minimisation
left   ...       0.00000000    -468.62814576
centre ...       0.37679832    -468.77540278
right  ...       0.75359663    -468.87805811

left   ...       0.00000000    -468.62814576
centre ...       0.37679832    -468.77540278
right  ...       0.75359663    -468.87805811
new    ...       1.43243733    -468.94294757

__s__    ...       0.67884070

left   ...       0.37679832    -468.77540278
centre ...       0.75359663    -468.87805811
right  ...       1.43243733    -468.94294757
new    ...       1.37830314    -468.94338186

__s__    ...      -0.05413419

 ALPHA AFTER:    1.3783031408603061     
  Cycle:     46 Energy:      -468.943382  Gnorm:      0.434401  CPU:    0.365
 Line minimisation2
 ALPHA BEFORE:    1.5487718720814894     
  ** Opt : line minimisation
left   ...       0.00000000    -468.94338186
centre ...       0.38719297    -469.05305083
right  ...       0.77438594    -469.12753811

left   ...       0.00000000    -468.94338186
centre ...       0.38719297    -469.05305083
right  ...       0.77438594    -469.12753811
new    ...       1.40056078    -469.17811188

__s__    ...       0.62617485

left   ...       0.38719297    -469.05305083
centre ...       0.77438594    -469.12753811
right  ...       1.40056078    -469.17811188
new    ...       1.45412883    -469.17843419

__s__    ...       0.05356805

 ALPHA AFTER:    1.4541288302507300     
  Cycle:     47 Energy:      -469.178434  Gnorm:      0.329115  CPU:    0.372
 Line minimisation2
 ALPHA BEFORE:    1.5885913298570005     
  ** Opt : line minimisation
left   ...       0.00000000    -469.17843419
centre ...       0.39714783    -469.25157022
right  ...       0.79429566    -469.29443472

left   ...       0.00000000    -469.17843419
centre ...       0.39714783    -469.25157022
right  ...       0.79429566    -469.29443472
new    ...       1.15808347    -469.30722355

__s__    ...       0.36378780

 ALPHA AFTER:    1.1580834692754902     
  Cycle:     48 Energy:      -469.307224  Gnorm:      0.187538  CPU:    0.376
 Line minimisation2
 ALPHA BEFORE:    1.4040120666954850     
  ** Opt : line minimisation
left   ...       0.00000000    -469.30722355
centre ...       0.35100302    -469.33910368
right  ...       0.70200603    -469.35728869

left   ...       0.00000000    -469.30722355
centre ...       0.35100302    -469.33910368
right  ...       0.70200603    -469.35728869
new    ...       0.99258254    -469.36167698

__s__    ...       0.29057651

 ALPHA AFTER:   0.99258254431626880     
  Cycle:     49 Energy:      -469.361677  Gnorm:      0.187375  CPU:    0.381
  ** Hessian calculated **
 Line minimisation2
 ALPHA BEFORE:    1.0000000000000000     
  ** Opt : line minimisation
left   ...       0.00000000    -469.36167698
centre ...       0.25000000    -469.37459141
right  ...       0.50000000    -469.38700473

left   ...       0.00000000    -469.36167698
centre ...       0.25000000    -469.37459141
right  ...       0.50000000    -469.38700473
new    ...       1.50000000    -469.42989527

__s__    ...       1.00000000

left   ...       0.25000000    -469.37459141
centre ...       0.50000000    -469.38700473
right  ...       1.50000000    -469.42989527
new    ...       2.50000000    -469.45891413

__s__    ...       1.00000000

left   ...       0.50000000    -469.38700473
centre ...       1.50000000    -469.42989527
right  ...       2.50000000    -469.45891413
new    ...       3.50000000    -469.46812184

__s__    ...       1.00000000

 ALPHA AFTER:    3.5000000000000000     
  Cycle:     50 Energy:      -469.468122  Gnorm:      0.345256  CPU:    0.390
  ** Hessian calculated **
 Line minimisation2
 ALPHA BEFORE:    1.0000000000000000     
  ** Opt : line minimisation
left   ...       0.00000000    -469.46812184
centre ...       0.25000000    -469.49601393
right  ...       0.50000000    -469.52227128

left   ...       0.00000000    -469.46812184
centre ...       0.25000000    -469.49601393
right  ...       0.50000000    -469.52227128
new    ...       1.50000000    -469.60935841

__s__    ...       1.00000000

left   ...       0.25000000    -469.49601393
centre ...       0.50000000    -469.52227128
right  ...       1.50000000    -469.60935841
new    ...       2.50000000    -469.66957751

__s__    ...       1.00000000

left   ...       0.50000000    -469.52227128
centre ...       1.50000000    -469.60935841
right  ...       2.50000000    -469.66957751
new    ...       3.50000000    -469.70174988

__s__    ...       1.00000000

 ALPHA AFTER:    3.5000000000000000     
  Cycle:     51 Energy:      -469.701750  Gnorm:      0.323785  CPU:    0.400
 Line minimisation2
 ALPHA BEFORE:    2.3333333333333335     
  ** Opt : line minimisation
left   ...       0.00000000    -469.70174988
centre ...       0.58333333    -469.75633386
right  ...       1.16666667    -469.79501861

left   ...       0.00000000    -469.70174988
centre ...       0.58333333    -469.75633386
right  ...       1.16666667    -469.79501861
new    ...       2.16666667    -469.80386203

__s__    ...       1.00000000

 ALPHA AFTER:    2.1666666666666670     
  Cycle:     52 Energy:      -469.803862  Gnorm:      0.226905  CPU:    0.405
 Line minimisation2
 ALPHA BEFORE:    1.5555981166787387     
  ** Opt : line minimisation
left   ...       0.00000000    -469.80386203
centre ...       0.38889953    -469.84987481
right  ...       0.77779906    -469.72515735

left   ...       0.00000000    -469.80386203
centre ...       0.38889953    -469.84987481
right  ...       0.77779906    -469.72515735
new    ...       0.29926041    -469.85470356

__s__    ...      -0.47853865

left   ...       0.00000000    -469.80386203
centre ...       0.29926041    -469.85470356
right  ...       0.38889953    -469.84987481
new    ...       0.29726734    -469.85470709

__s__    ...      -0.00199307

 ALPHA AFTER:   0.29726734259886239     
  Cycle:     53 Energy:      -469.854707  Gnorm:      0.155647  CPU:    0.411
 Line minimisation2
 ALPHA BEFORE:   0.82000035945366601     
  ** Opt : line minimisation
left   ...       0.00000000    -469.85470709
centre ...       0.20500009    -469.87411420
right  ...       0.41000018    -469.88974650

left   ...       0.00000000    -469.85470709
centre ...       0.20500009    -469.87411420
right  ...       0.41000018    -469.88974650
new    ...       1.15645160    -469.91480085

__s__    ...       0.74645142

left   ...       0.20500009    -469.87411420
centre ...       0.41000018    -469.88974650
right  ...       1.15645160    -469.91480085
new    ...       1.15725631    -469.91479894

__s__    ...       0.00080471

 ALPHA AFTER:    1.1564516024321323     
  Cycle:     54 Energy:      -469.914801  Gnorm:      0.118985  CPU:    0.417
 Line minimisation2
 ALPHA BEFORE:   0.77096773495475490     
  ** Opt : line minimisation
left   ...       0.00000000    -469.91480085
centre ...       0.19274193    -469.92539781
right  ...       0.38548387    -469.93414034

left   ...       0.00000000    -469.91480085
centre ...       0.19274193    -469.92539781
right  ...       0.38548387    -469.93414034
new    ...       1.19777075    -469.93921481

__s__    ...       0.81228689

left   ...       0.19274193    -469.92539781
centre ...       0.38548387    -469.93414034
right  ...       1.19777075    -469.93921481
new    ...       0.87189209    -469.94481286

__s__    ...      -0.32587867

 ALPHA AFTER:   0.87189208713513966     
  Cycle:     55 Energy:      -469.944813  Gnorm:      0.123941  CPU:    0.421
 Line minimisation2
 ALPHA BEFORE:   0.79683470105947718     
  ** Opt : line minimisation
left   ...       0.00000000    -469.94481286
centre ...       0.19920868    -469.95780570
right  ...       0.39841735    -469.96441400

left   ...       0.00000000    -469.94481286
centre ...       0.19920868    -469.95780570
right  ...       0.39841735    -469.96441400
new    ...       0.50500378    -469.96495839

__s__    ...       0.10658643

 ALPHA AFTER:   0.50500378345674635     
  Cycle:     56 Energy:      -469.964958  Gnorm:      0.129111  CPU:    0.424
 Line minimisation2
 ALPHA BEFORE:    1.6563336095312124     
  ** Opt : line minimisation
left   ...       0.00000000    -469.96495839
centre ...       0.41408340    -469.98054040
right  ...       0.82816680    -469.98759467

left   ...       0.00000000    -469.96495839
centre ...       0.41408340    -469.98054040
right  ...       0.82816680    -469.98759467
new    ...       0.96366135    -469.98841941

__s__    ...       0.13549455

 ALPHA AFTER:   0.96366135145799359     
  Cycle:     57 Energy:      -469.988419  Gnorm:      0.078363  CPU:    0.427
 Line minimisation2
 ALPHA BEFORE:   0.64244090097199569     
  ** Opt : line minimisation
left   ...       0.00000000    -469.98841941
centre ...       0.16061023    -469.99140691
right  ...       0.32122045    -469.99417474

left   ...       0.00000000    -469.98841941
centre ...       0.16061023    -469.99140691
right  ...       0.32122045    -469.99417474
new    ...       1.32122045    -470.00133766

__s__    ...       1.00000000

left   ...       0.16061023    -469.99140691
centre ...       0.32122045    -469.99417474
right  ...       1.32122045    -470.00133766
new    ...       1.23398737    -470.00157845

__s__    ...      -0.08723308

 ALPHA AFTER:    1.2339873697508117     
  Cycle:     58 Energy:      -470.001578  Gnorm:      0.068745  CPU:    0.430
 Line minimisation2
 ALPHA BEFORE:    2.2950365321126438     
  ** Opt : line minimisation
left   ...       0.00000000    -470.00157845
centre ...       0.57375913    -470.00744526
right  ...       1.14751827    -470.00711521

left   ...       0.00000000    -470.00157845
centre ...       0.57375913    -470.00744526
right  ...       1.14751827    -470.00711521
new    ...       0.83007972    -470.00827281

__s__    ...      -0.31743854

 ALPHA AFTER:   0.83007972371286676     
  Cycle:     59 Energy:      -470.008273  Gnorm:      0.038605  CPU:    0.434
 Line minimisation2
 ALPHA BEFORE:   0.56220954616335461     
  ** Opt : line minimisation
left   ...       0.00000000    -470.00827281
centre ...       0.14055239    -470.00930991
right  ...       0.28110477    -470.00997048

left   ...       0.00000000    -470.00827281
centre ...       0.14055239    -470.00930991
right  ...       0.28110477    -470.00997048
new    ...       0.45739932    -470.01085009

__s__    ...       0.17629455

left   ...       0.14055239    -470.00930991
centre ...       0.28110477    -470.00997048
right  ...       0.45739932    -470.01085009
new    ...       0.80998842    -470.01184357

__s__    ...       0.35258910

left   ...       0.28110477    -470.00997048
centre ...       0.45739932    -470.01085009
right  ...       0.80998842    -470.01184357
new    ...       0.97678385    -470.01145822

__s__    ...       0.16679543

 ALPHA AFTER:   0.80998842449128994     
  Cycle:     60 Energy:      -470.011844  Gnorm:      0.029392  CPU:    0.438
  ** Hessian calculated **
 Line minimisation2
 ALPHA BEFORE:    1.0000000000000000     
  ** Opt : line minimisation
left   ...       0.00000000    -470.01184357
centre ...       0.25000000    -470.01301883
right  ...       0.50000000    -470.01367422

left   ...       0.00000000    -470.01184357
centre ...       0.25000000    -470.01301883
right  ...       0.50000000    -470.01367422
new    ...       0.69016472    -470.01388364

__s__    ...       0.19016472

 ALPHA AFTER:   0.69016471740942387     
  Cycle:     61 Energy:      -470.013884  Gnorm:      0.011637  CPU:    0.443
 Line minimisation2
 ALPHA BEFORE:    1.5815182834358261     
  ** Opt : line minimisation
left   ...       0.00000000    -470.01388364
centre ...       0.39537957    -470.01414063
right  ...       0.79075914    -470.01425379

left   ...       0.00000000    -470.01388364
centre ...       0.39537957    -470.01414063
right  ...       0.79075914    -470.01425379
new    ...       0.90414652    -470.01426344

__s__    ...       0.11338738

 ALPHA AFTER:   0.90414652210205115     
  Cycle:     62 Energy:      -470.014263  Gnorm:      0.003947  CPU:    0.446
 Line minimisation2
 ALPHA BEFORE:    6.4347904534252898     
  ** Opt : line minimisation
left   ...       0.00000000    -470.01426344
centre ...       1.00000000    -470.01427650
right  ...       2.00000000    -470.01426546

left   ...       0.00000000    -470.01426344
centre ...       1.00000000    -470.01427650
right  ...       2.00000000    -470.01426546
new    ...       1.04174653    -470.01427652

__s__    ...      -0.95825347

 ALPHA AFTER:    1.0417465275353954     
  Cycle:     63 Energy:      -470.014277  Gnorm:      0.000855  CPU:    0.449
 Line minimisation2
 ALPHA BEFORE:    4.0491857141682326     
  ** Opt : line minimisation
left   ...       0.00000000    -470.01427652
centre ...       1.00000000    -470.01427795
right  ...       2.00000000    -470.01427728

left   ...       0.00000000    -470.01427652
centre ...       1.00000000    -470.01427795
right  ...       2.00000000    -470.01427728
new    ...       1.18113504    -470.01427799

__s__    ...      -0.81886496

 ALPHA AFTER:    1.1811350419299926     


  **** Optimisation achieved ****


  Final energy =    -470.01427799 eV
  Final Gnorm  =       0.00021065

  Components of energy : 

--------------------------------------------------------------------------------
  Interatomic potentials     =          69.57873161 eV    
  Monopole - monopole (real) =        -255.33144816 eV    
  Monopole - monopole (recip)=        -284.26156143 eV    
  Monopole - monopole (total)=        -539.59300960 eV    
--------------------------------------------------------------------------------
  Total lattice energy       =        -470.01427799 eV    
--------------------------------------------------------------------------------
  Total lattice energy       =          -45349.1930 kJ/(mole unit cells)
--------------------------------------------------------------------------------

  Final fractional coordinates of atoms :

--------------------------------------------------------------------------------
   No.  Atomic        x           y          z          Radius
        Label       (Frac)      (Frac)     (Frac)       (Angs) 
--------------------------------------------------------------------------------
     1  O     c     0.500000    0.500000    0.750000    0.000000
     2  O     c     0.506036    0.012719    0.762780    0.000000
     3  O     c     0.936583    0.721468    0.654847    0.000000
     4  O     c     0.942117    0.284335    0.927363    0.000000
     5  O     c     0.970164    0.807124    0.201550    0.000000
     6  O     c     0.526289    0.063649    0.099535    0.000000
     7  O     c     0.533837    0.552132    0.076927    0.000000
     8  O     c     0.478490    0.624038    0.407789    0.000000
     9  O     c     0.702056    0.020545    0.443935    0.000000
    10  Sr    c     0.151523    0.330238    0.226129    0.000000
    11  Sr    c     0.144177    0.772345    0.927934    0.000000
    12  Sr    c     0.076018    0.250875    0.625873    0.000000
    13  Ti    c     0.607915    0.763585    0.613517    0.000000
    14  Ti    c     0.601071    0.287215    0.922748    0.000000
    15  Ti    c     0.640262    0.819864    0.239329    0.000000
--------------------------------------------------------------------------------

  Final Cartesian lattice vectors (Angstroms) :

        5.330053   -0.195464   -0.121667
       -0.195464    5.256066   -0.142239
       -0.243334   -0.284478    8.074926


  Final cell parameters and derivatives :

--------------------------------------------------------------------------------
       a            5.335024 Angstrom     dE/de1(xx)     0.005863 eV/strain
       b            5.261622 Angstrom     dE/de2(yy)     0.003761 eV/strain
       c            8.083599 Angstrom     dE/de3(zz)     0.001383 eV/strain
       alpha       93.499565 Degrees      dE/de4(yz)     0.000390 eV/strain
       beta        92.955809 Degrees      dE/de5(xz)    -0.000330 eV/strain
       gamma       94.191890 Degrees      dE/de6(xy)     0.002011 eV/strain
--------------------------------------------------------------------------------

  Primitive cell volume =           225.526627 Angs**3

  Density of cell =      4.053363 g/cm**3

  Non-primitive cell volume =           225.526627 Angs**3


  Final internal derivatives :

--------------------------------------------------------------------------------
   No.  Atomic          a             b             c           Radius
        Label          (eV)          (eV)          (eV)        (eV/Angs)
--------------------------------------------------------------------------------
      1 O     c       0.000000      0.000000      0.000000      0.000000
      2 O     c      -0.000344      0.000228      0.000295      0.000000
      3 O     c       0.003187      0.000220     -0.000332      0.000000
      4 O     c       0.002974     -0.000512     -0.000360      0.000000
      5 O     c       0.002096     -0.000729     -0.000439      0.000000
      6 O     c      -0.000006     -0.000293      0.000254      0.000000
      7 O     c      -0.000531      0.000162     -0.000340      0.000000
      8 O     c      -0.000920     -0.001448     -0.000006      0.000000
      9 O     c       0.000548      0.001224     -0.000224      0.000000
     10 Sr    c       0.000084      0.000349      0.000925      0.000000
     11 Sr    c      -0.000183      0.000243      0.000055      0.000000
     12 Sr    c      -0.000081      0.000142     -0.001183      0.000000
     13 Ti    c      -0.002072      0.000304     -0.000375      0.000000
     14 Ti    c      -0.002087      0.000491     -0.000109      0.000000
     15 Ti    c      -0.002171      0.000340      0.000858      0.000000
--------------------------------------------------------------------------------
  Maximum abs         0.003187      0.001448      0.001183      0.000000
--------------------------------------------------------------------------------


  Time to end of optimisation =       0.4518 seconds

 Exiting ------OPTIONS------

  Peak dynamic memory used =       0.60 MB 


  Timing analysis for GULP :

--------------------------------------------------------------------------------
  Task / Subroutine                                          Time (Seconds)
--------------------------------------------------------------------------------
  Calculation of reciprocal space energy and derivatives          0.0453
  Calculation of real space energy and derivatives                0.3891
  Calculation and manipulation of Hessian matrix                  0.0002
  Calculation of matrix inversion                                 0.0007
  Global summation overhead                                       0.0002
--------------------------------------------------------------------------------
  Total CPU time                                                  0.4518
--------------------------------------------------------------------------------


  Job Finished at 16:21.22  3rd February   2020                               

