********************************************************************************
*                       GENERAL UTILITY LATTICE PROGRAM                        *
*                                 Julian Gale                                  *
*                       Curtin Institute for Computation                       *
*                           Department of Chemistry                            *
*                    Curtin University, Western Australia                      *
********************************************************************************
* Version = 5.1.1 * Last modified =  25th August 2019                          *
********************************************************************************
*  optimise     - perform optimisation run                                     *
*  conp         - constant pressure calculation                                *
*  nosymmetry   - turn off symmetry after initial structure generation         *
*  full         - generate full unit cell when symmetry is removed             *
*  conjugate    - use conjugate gradients minimiser                            *
********************************************************************************
* ASE calculation                                                              *
********************************************************************************


  Job Started  at 12:02.26  4th February   2020                               

  Number of CPUs =     1


  Total number of configurations input =      1

********************************************************************************
*  Input for Configuration =   1                                               *
********************************************************************************

  Formula = O9Sr3Ti3                                                    

  Number of irreducible atoms/shells =      15


  Total number atoms/shells =      15

  Dimensionality = 3               :  Bulk   



  Cartesian lattice vectors (Angstroms) :

        4.000000    0.000000    0.000000
        0.000000    4.000000    0.000000
        0.000000    0.000000    8.000000

  Cell parameters (Angstroms/Degrees):

  a =       4.0000    alpha =  90.0000
  b =       4.0000    beta  =  90.0000
  c =       8.0000    gamma =  90.0000

  Initial cell volume =         128.000000 Angs**3

  Temperature of configuration =  0.000     K 

  Pressure of configuration =         0.000 GPa 

  Fractional coordinates of asymmetric unit :

--------------------------------------------------------------------------------
   No.  Atomic       x           y          z         Charge      Occupancy
        Label      (Frac)      (Frac)     (Frac)        (e)         (Frac)  
--------------------------------------------------------------------------------
      1 O     c    0.000000    0.500000    0.250000    -2.00000    1.000000    
      2 O     c    0.500000 *  0.500000 *  0.250000 *  -2.00000    1.000000    
      3 O     c    0.000000 *  0.500000 *  0.500000 *  -2.00000    1.000000    
      4 O     c    0.500000 *  0.000000 *  0.500000 *  -2.00000    1.000000    
      5 O     c    0.500000 *  0.500000 *  0.750000 *  -2.00000    1.000000    
      6 O     c    0.000000 *  0.000000 *  0.000000 *  -2.00000    1.000000    
      7 O     c    0.000000 *  0.000000 *  0.500000 *  -2.00000    1.000000    
      8 O     c    0.500000 *  0.000000 *  0.000000 *  -2.00000    1.000000    
      9 O     c    0.000000 *  0.500000 *  0.750000 *  -2.00000    1.000000    
     10 Sr    c    0.750000 *  0.250000 *  0.375000 *   2.00000    1.000000    
     11 Sr    c    0.750000 *  0.750000 *  0.875000 *   2.00000    1.000000    
     12 Sr    c    0.750000 *  0.750000 *  0.125000 *   2.00000    1.000000    
     13 Ti    c    0.750000 *  0.250000 *  0.875000 *   4.00000    1.000000    
     14 Ti    c    0.250000 *  0.250000 *  0.125000 *   4.00000    1.000000    
     15 Ti    c    0.250000 *  0.750000 *  0.125000 *   4.00000    1.000000    
--------------------------------------------------------------------------------



********************************************************************************
*  General input information                                                   *
********************************************************************************

  Species output for all configurations : 

--------------------------------------------------------------------------------
  Species    Type    Atomic    Atomic    Charge       Radii (Angs)     Library
                     Number     Mass       (e)     Cova   Ionic  VDW   Symbol
--------------------------------------------------------------------------------
    O        Core        8      16.00  -2.000000   0.730  0.000  1.360          
    Sr       Core       38      87.62   2.000000   1.120  0.000  1.670          
    Ti       Core       22      47.88   4.000000   1.470  0.000  2.190          
--------------------------------------------------------------------------------


  Lattice summation method               =    Ewald          (3-D)
                                         =    Parry          (2-D)
                                         =    Saunders et al (1-D)
  Accuracy factor for lattice sums       =   12.000


  Time limit = Infinity

  Maximum range for interatomic potentials =    100000.000000 Angstroms

  General interatomic potentials :

--------------------------------------------------------------------------------
Atom  Types   Potential      Parameter       Value         Units   Cutoffs(Ang)
  1     2                                                            Min /  Max 
--------------------------------------------------------------------------------
O    c Sr   c Buckingham    Buckingham A     1952.3900    eV        0.000 10.000
                            Buckingham rho  0.33685000    Ang       
                            Buckingham C     19.220000    eV*Ang^6  
--------------------------------------------------------------------------------
O    c Ti   c Buckingham    Buckingham A     4590.7279    eV        0.000 10.000
                            Buckingham rho  0.26100000    Ang       
                            Buckingham C     0.0000000    eV*Ang^6  
--------------------------------------------------------------------------------
O    c O    c Buckingham    Buckingham A     1388.7700    eV        0.000 10.000
                            Buckingham rho  0.36262000    Ang       
                            Buckingham C     175.00000    eV*Ang^6  
--------------------------------------------------------------------------------
 Calling ------OPTIONS------

********************************************************************************
*  Output for configuration   1                                                *
********************************************************************************


  Components of energy : 

--------------------------------------------------------------------------------
  Interatomic potentials     =         252.05488473 eV    
  Monopole - monopole (real) =        -121.78183040 eV    
  Monopole - monopole (recip)=        -176.23510212 eV    
  Monopole - monopole (total)=        -298.01693251 eV    
--------------------------------------------------------------------------------
  Total lattice energy       =         -45.96204778 eV    
--------------------------------------------------------------------------------
  Total lattice energy       =           -4434.6350 kJ/(mole unit cells)
--------------------------------------------------------------------------------


  Number of variables =       48

  Maximum number of calculations  =          1000
  Maximum Hessian update interval =            10
  Maximum step size               =   1.000000000
  Maximum parameter tolerance     =   0.000010000
  Maximum function  tolerance     =   0.000010000
  Maximum gradient  tolerance     =   0.001000000
  Maximum gradient  component     =   0.010000000

  Cell parameters to be optimised using strains

  Conjugate gradient optimiser to be used

  Lower half triangular hessian to be used

  Minimiser to switch to BFGS with exact hessian
  When gradient norm is less than     0.500000

  Start of bulk optimisation :

  Cycle:      0 Energy:       -45.962048  Gnorm:     36.523722  CPU:    0.013
 Perform trimming
 Line minimisation2
 ALPHA BEFORE:    1.0000000000000000     
  ** Opt : line minimisation
left   ...       0.00000000     -45.96204778
centre ...       0.25000000    -151.94574012
right  ...       0.50000000    -221.62406934

left   ...       0.00000000     -45.96204778
centre ...       0.25000000    -151.94574012
right  ...       0.50000000    -221.62406934
new    ...       0.85480741    -287.03404440

__s__    ...       0.35480741

left   ...       0.25000000    -151.94574012
centre ...       0.50000000    -221.62406934
right  ...       0.85480741    -287.03404440
new    ...       1.26821821    -314.48515249

__s__    ...       0.41341080

left   ...       0.50000000    -221.62406934
centre ...       0.85480741    -287.03404440
right  ...       1.26821821    -314.48515249
new    ...       1.27774861    -314.41575039

__s__    ...       0.00953040

 ALPHA AFTER:    1.2682182118296077     
  Cycle:      1 Energy:      -314.485152  Gnorm:     13.410267  CPU:    0.024
 Perform trimming
 Line minimisation2
 ALPHA BEFORE:    1.2682182118296077     
  ** Opt : line minimisation
left   ...       0.00000000    -314.48515249
centre ...       0.31705455    -370.80072688
right  ...       0.63410911    -378.00898542

left   ...       0.00000000    -314.48515249
centre ...       0.31705455    -370.80072688
right  ...       0.63410911    -378.00898542
new    ...       0.52212095    -379.91588132

__s__    ...      -0.11198816

left   ...       0.31705455    -370.80072688
centre ...       0.52212095    -379.91588132
right  ...       0.63410911    -378.00898542
new    ...       0.53420707    -379.91549646

__s__    ...       0.01208613

 ALPHA AFTER:   0.52212094790919983     
  Cycle:      2 Energy:      -379.915881  Gnorm:      8.568949  CPU:    0.030
 Line minimisation2
 ALPHA BEFORE:   0.52212094790919983     
  ** Opt : line minimisation
left   ...       0.00000000    -379.91588132
centre ...       0.13053024    -397.25641924
right  ...       0.26106047    -408.42393032

left   ...       0.00000000    -379.91588132
centre ...       0.13053024    -397.25641924
right  ...       0.26106047    -408.42393032
new    ...       0.43193524    -415.52115264

__s__    ...       0.17087477

left   ...       0.13053024    -397.25641924
centre ...       0.26106047    -408.42393032
right  ...       0.43193524    -415.52115264
new    ...       0.48869066    -416.29538504

__s__    ...       0.05675542

left   ...       0.26106047    -408.42393032
centre ...       0.43193524    -415.52115264
right  ...       0.48869066    -416.29538504
new    ...       0.51597605    -416.41812379

__s__    ...       0.02728539

 ALPHA AFTER:   0.51597605100345589     
  Cycle:      3 Energy:      -416.418124  Gnorm:      6.097445  CPU:    0.036
 Line minimisation2
 ALPHA BEFORE:   0.51597605100345589     
  ** Opt : line minimisation
left   ...       0.00000000    -416.41812379
centre ...       0.12899401    -426.11071668
right  ...       0.25798803    -432.87290986

left   ...       0.00000000    -416.41812379
centre ...       0.12899401    -426.11071668
right  ...       0.25798803    -432.87290986
new    ...       0.49115773    -437.37092697

__s__    ...       0.23316970

left   ...       0.12899401    -426.11071668
centre ...       0.25798803    -432.87290986
right  ...       0.49115773    -437.37092697
new    ...       0.48000647    -437.38732200

__s__    ...      -0.01115126

 ALPHA AFTER:   0.48000647124612084     
  Cycle:      4 Energy:      -437.387322  Gnorm:      3.021298  CPU:    0.040
 Line minimisation2
 ALPHA BEFORE:   0.48000647124612084     
  ** Opt : line minimisation
left   ...       0.00000000    -437.38732200
centre ...       0.12000162    -439.56411347
right  ...       0.24000324    -441.10247142

left   ...       0.00000000    -437.38732200
centre ...       0.12000162    -439.56411347
right  ...       0.24000324    -441.10247142
new    ...       0.46915617    -442.12422413

__s__    ...       0.22915293

left   ...       0.12000162    -439.56411347
centre ...       0.24000324    -441.10247142
right  ...       0.46915617    -442.12422413
new    ...       0.44768361    -442.14244666

__s__    ...      -0.02147255

 ALPHA AFTER:   0.44768361479788837     
  Cycle:      5 Energy:      -442.142447  Gnorm:      3.216024  CPU:    0.043
 Line minimisation2
 ALPHA BEFORE:   0.44768361479788837     
  ** Opt : line minimisation
left   ...       0.00000000    -442.14244666
centre ...       0.11192090    -444.32214878
right  ...       0.22384181    -445.55860860

left   ...       0.00000000    -442.14244666
centre ...       0.11192090    -444.32214878
right  ...       0.22384181    -445.55860860
new    ...       0.31459414    -445.79577918

__s__    ...       0.09075233

 ALPHA AFTER:   0.31459413622145116     
  Cycle:      6 Energy:      -445.795779  Gnorm:      2.259055  CPU:    0.046
 Line minimisation2
 ALPHA BEFORE:   0.31459413622145116     
  ** Opt : line minimisation
left   ...       0.00000000    -445.79577918
centre ...       0.07864853    -446.58237916
right  ...       0.15729707    -447.21935784

left   ...       0.00000000    -445.79577918
centre ...       0.07864853    -446.58237916
right  ...       0.15729707    -447.21935784
new    ...       0.45280102    -448.19755165

__s__    ...       0.29550396

left   ...       0.07864853    -446.58237916
centre ...       0.15729707    -447.21935784
right  ...       0.45280102    -448.19755165
new    ...       0.43436551    -448.20507453

__s__    ...      -0.01843552

 ALPHA AFTER:   0.43436550891310094     
  Cycle:      7 Energy:      -448.205075  Gnorm:      2.196026  CPU:    0.050
 Line minimisation2
 ALPHA BEFORE:   0.43436550891310094     
  ** Opt : line minimisation
left   ...       0.00000000    -448.20507453
centre ...       0.10859138    -449.24822229
right  ...       0.21718275    -450.05251924

left   ...       0.00000000    -448.20507453
centre ...       0.10859138    -449.24822229
right  ...       0.21718275    -450.05251924
new    ...       0.52855347    -451.13930305

__s__    ...       0.31137071

left   ...       0.10859138    -449.24822229
centre ...       0.21718275    -450.05251924
right  ...       0.52855347    -451.13930305
new    ...       0.56000859    -451.15649231

__s__    ...       0.03145512

 ALPHA AFTER:   0.56000859419336890     
  Cycle:      8 Energy:      -451.156492  Gnorm:      2.187116  CPU:    0.054
 Line minimisation2
 ALPHA BEFORE:   0.56000859419336890     
  ** Opt : line minimisation
left   ...       0.00000000    -451.15649231
centre ...       0.14000215    -452.45330858
right  ...       0.28000430    -453.18608453

left   ...       0.00000000    -451.15649231
centre ...       0.14000215    -452.45330858
right  ...       0.28000430    -453.18608453
new    ...       0.39188775    -453.36400562

__s__    ...       0.11188345

 ALPHA AFTER:   0.39188774860696490     
  Cycle:      9 Energy:      -453.364006  Gnorm:      2.014606  CPU:    0.059
 Line minimisation2
 ALPHA BEFORE:   0.39188774860696490     
  ** Opt : line minimisation
left   ...       0.00000000    -453.36400562
centre ...       0.09797194    -453.97478327
right  ...       0.19594387    -454.01768205

left   ...       0.00000000    -453.36400562
centre ...       0.09797194    -453.97478327
right  ...       0.19594387    -454.01768205
new    ...       0.15435892    -454.06639445

__s__    ...      -0.04158496

 ALPHA AFTER:   0.15435891522753653     
  Cycle:     10 Energy:      -454.066394  Gnorm:      1.335786  CPU:    0.064
 Line minimisation2
 ALPHA BEFORE:   0.15435891522753653     
  ** Opt : line minimisation
left   ...       0.00000000    -454.06639445
centre ...       0.03858973    -454.21730861
right  ...       0.07717946    -454.35655197

left   ...       0.00000000    -454.06639445
centre ...       0.03858973    -454.21730861
right  ...       0.07717946    -454.35655197
new    ...       0.51829540    -455.04353402

__s__    ...       0.44111594

left   ...       0.03858973    -454.21730861
centre ...       0.07717946    -454.35655197
right  ...       0.51829540    -455.04353402
new    ...       0.47986977    -455.05496181

__s__    ...      -0.03842563

 ALPHA AFTER:   0.47986976874625675     
  Cycle:     11 Energy:      -455.054962  Gnorm:      1.170089  CPU:    0.069
 Line minimisation2
 ALPHA BEFORE:   0.47986976874625675     
  ** Opt : line minimisation
left   ...       0.00000000    -455.05496181
centre ...       0.11996744    -455.37670949
right  ...       0.23993488    -455.61344471

left   ...       0.00000000    -455.05496181
centre ...       0.11996744    -455.37670949
right  ...       0.23993488    -455.61344471
new    ...       0.51402597    -455.84693844

__s__    ...       0.27409109

left   ...       0.11996744    -455.37670949
centre ...       0.23993488    -455.61344471
right  ...       0.51402597    -455.84693844
new    ...       0.52664982    -455.84770630

__s__    ...       0.01262384

 ALPHA AFTER:   0.52664981774159758     
  Cycle:     12 Energy:      -455.847706  Gnorm:      1.587657  CPU:    0.075
 Perform trimming
 Line minimisation2
 ALPHA BEFORE:   0.52664981774159758     
  ** Opt : line minimisation
left   ...       0.00000000    -455.84770630
centre ...       0.13166245    -456.31666169
right  ...       0.26332491    -456.54907495

left   ...       0.00000000    -455.84770630
centre ...       0.13166245    -456.31666169
right  ...       0.26332491    -456.54907495
new    ...       0.32685795    -456.58266993

__s__    ...       0.06353304

 ALPHA AFTER:   0.32685795164805498     
  Cycle:     13 Energy:      -456.582670  Gnorm:      1.742252  CPU:    0.079
 Line minimisation2
 ALPHA BEFORE:   0.32685795164805498     
  ** Opt : line minimisation
left   ...       0.00000000    -456.58266993
centre ...       0.08171449    -457.09389229
right  ...       0.16342898    -457.47685696

left   ...       0.00000000    -456.58266993
centre ...       0.08171449    -457.09389229
right  ...       0.16342898    -457.47685696
new    ...       0.36656307    -457.94678013

__s__    ...       0.20313409

left   ...       0.08171449    -457.09389229
centre ...       0.16342898    -457.47685696
right  ...       0.36656307    -457.94678013
new    ...       0.40382616    -457.96740162

__s__    ...       0.03726309

 ALPHA AFTER:   0.40382616310448660     
  Cycle:     14 Energy:      -457.967402  Gnorm:      1.579740  CPU:    0.085
 Line minimisation2
 ALPHA BEFORE:   0.40382616310448660     
  ** Opt : line minimisation
left   ...       0.00000000    -457.96740162
centre ...       0.10095654    -458.50516544
right  ...       0.20191308    -458.91961970

left   ...       0.00000000    -457.96740162
centre ...       0.10095654    -458.50516544
right  ...       0.20191308    -458.91961970
new    ...       0.49075862    -459.38395041

__s__    ...       0.28884554

left   ...       0.10095654    -458.50516544
centre ...       0.20191308    -458.91961970
right  ...       0.49075862    -459.38395041
new    ...       0.47177401    -459.38811924

__s__    ...      -0.01898461

 ALPHA AFTER:   0.47177401355014514     
  Cycle:     15 Energy:      -459.388119  Gnorm:      1.612718  CPU:    0.091
 Line minimisation2
 ALPHA BEFORE:   0.47177401355014514     
  ** Opt : line minimisation
left   ...       0.00000000    -459.38811924
centre ...       0.11794350    -460.00001674
right  ...       0.23588701    -460.43650124

left   ...       0.00000000    -459.38811924
centre ...       0.11794350    -460.00001674
right  ...       0.23588701    -460.43650124
new    ...       0.47039699    -460.52884564

__s__    ...       0.23450999

 ALPHA AFTER:   0.47039699268810148     
  Cycle:     16 Energy:      -460.528846  Gnorm:      1.716570  CPU:    0.095
 Line minimisation2
 ALPHA BEFORE:   0.47039699268810148     
  ** Opt : line minimisation
left   ...       0.00000000    -460.52884564
centre ...       0.11759925    -460.91867994
right  ...       0.23519850    -461.06899080

left   ...       0.00000000    -460.52884564
centre ...       0.11759925    -460.91867994
right  ...       0.23519850    -461.06899080
new    ...       0.25019725    -461.06834619

__s__    ...       0.01499876

 ALPHA AFTER:   0.23519849634405074     
  Cycle:     17 Energy:      -461.068991  Gnorm:      1.775465  CPU:    0.100
 Line minimisation2
 ALPHA BEFORE:   0.23519849634405074     
  ** Opt : line minimisation
left   ...       0.00000000    -461.06899080
centre ...       0.05879962    -461.45224796
right  ...       0.11759925    -461.75520069

left   ...       0.00000000    -461.06899080
centre ...       0.05879962    -461.45224796
right  ...       0.11759925    -461.75520069
new    ...       0.31002416    -462.27870193

__s__    ...       0.19242491

left   ...       0.05879962    -461.45224796
centre ...       0.11759925    -461.75520069
right  ...       0.31002416    -462.27870193
new    ...       0.35434232    -462.31323308

__s__    ...       0.04431816

 ALPHA AFTER:   0.35434232019560935     
  Cycle:     18 Energy:      -462.313233  Gnorm:      1.438907  CPU:    0.106
 Line minimisation2
 ALPHA BEFORE:   0.35434232019560935     
  ** Opt : line minimisation
left   ...       0.00000000    -462.31323308
centre ...       0.08858558    -462.71202976
right  ...       0.17717116    -463.02897950

left   ...       0.00000000    -462.31323308
centre ...       0.08858558    -462.71202976
right  ...       0.17717116    -463.02897950
new    ...       0.47592326    -463.50075329

__s__    ...       0.29875210

left   ...       0.08858558    -462.71202976
centre ...       0.17717116    -463.02897950
right  ...       0.47592326    -463.50075329
new    ...       0.47955910    -463.50083454

__s__    ...       0.00363584

 ALPHA AFTER:   0.47955909762469262     
  Cycle:     19 Energy:      -463.500835  Gnorm:      1.276180  CPU:    0.112
 Line minimisation2
 ALPHA BEFORE:   0.47955909762469262     
  ** Opt : line minimisation
left   ...       0.00000000    -463.50083454
centre ...       0.11988977    -463.85442878
right  ...       0.23977955    -464.02900535

left   ...       0.00000000    -463.50083454
centre ...       0.11988977    -463.85442878
right  ...       0.23977955    -464.02900535
new    ...       0.29675021    -464.04814918

__s__    ...       0.05697066

 ALPHA AFTER:   0.29675020588786577     
  Cycle:     20 Energy:      -464.048149  Gnorm:      0.929504  CPU:    0.116
 Line minimisation2
 ALPHA BEFORE:   0.29675020588786577     
  ** Opt : line minimisation
left   ...       0.00000000    -464.04814918
centre ...       0.07418755    -464.18183946
right  ...       0.14837510    -464.29366371

left   ...       0.00000000    -464.04814918
centre ...       0.07418755    -464.18183946
right  ...       0.14837510    -464.29366371
new    ...       0.49068099    -464.50823893

__s__    ...       0.34230589

left   ...       0.07418755    -464.18183946
centre ...       0.14837510    -464.29366371
right  ...       0.49068099    -464.50823893
new    ...       0.46779038    -464.50997212

__s__    ...      -0.02289061

 ALPHA AFTER:   0.46779038131854683     
  Cycle:     21 Energy:      -464.509972  Gnorm:      0.864207  CPU:    0.122
 Line minimisation2
 ALPHA BEFORE:   0.46779038131854683     
  ** Opt : line minimisation
left   ...       0.00000000    -464.50997212
centre ...       0.11694760    -464.69319729
right  ...       0.23389519    -464.84916366

left   ...       0.00000000    -464.50997212
centre ...       0.11694760    -464.69319729
right  ...       0.23389519    -464.84916366
new    ...       0.84455936    -465.18661408

__s__    ...       0.61066417

left   ...       0.11694760    -464.69319729
centre ...       0.23389519    -464.84916366
right  ...       0.84455936    -465.18661408
new    ...       0.79662208    -465.19041742

__s__    ...      -0.04793728

 ALPHA AFTER:   0.79662208270339685     
  Cycle:     22 Energy:      -465.190417  Gnorm:      0.975815  CPU:    0.128
 Line minimisation2
 ALPHA BEFORE:   0.79662208270339685     
  ** Opt : line minimisation
left   ...       0.00000000    -465.19041742
centre ...       0.19915552    -465.49466992
right  ...       0.39831104    -465.54374188

left   ...       0.00000000    -465.19041742
centre ...       0.19915552    -465.49466992
right  ...       0.39831104    -465.54374188
new    ...       0.33703147    -465.55659247

__s__    ...      -0.06127957

 ALPHA AFTER:   0.33703146726144850     
  Cycle:     23 Energy:      -465.556592  Gnorm:      0.534344  CPU:    0.133
 Line minimisation2
 ALPHA BEFORE:   0.33703146726144850     
  ** Opt : line minimisation
left   ...       0.00000000    -465.55659247
centre ...       0.08425787    -465.60690616
right  ...       0.16851573    -465.64755330

left   ...       0.00000000    -465.55659247
centre ...       0.08425787    -465.60690616
right  ...       0.16851573    -465.64755330
new    ...       0.48068512    -465.71690687

__s__    ...       0.31216938

left   ...       0.08425787    -465.60690616
centre ...       0.16851573    -465.64755330
right  ...       0.48068512    -465.71690687
new    ...       0.49381050    -465.71682964

__s__    ...       0.01312538

 ALPHA AFTER:   0.48068511771897715     
  Cycle:     24 Energy:      -465.716907  Gnorm:      0.512954  CPU:    0.139
 Line minimisation2
 ALPHA BEFORE:   0.48068511771897715     
  ** Opt : line minimisation
left   ...       0.00000000    -465.71690687
centre ...       0.12017128    -465.77847710
right  ...       0.24034256    -465.81815465

left   ...       0.00000000    -465.71690687
centre ...       0.12017128    -465.77847710
right  ...       0.24034256    -465.81815465
new    ...       0.39805117    -465.83807285

__s__    ...       0.15770862

 ALPHA AFTER:   0.39805117437187598     
  Cycle:     25 Energy:      -465.838073  Gnorm:      0.494539  CPU:    0.143
  ** Hessian calculated **
 Line minimisation2
 ALPHA BEFORE:    1.0000000000000000     
  ** Opt : line minimisation
left   ...       0.00000000    -465.83807285
centre ...       0.25000000    -465.93102446
right  ...       0.50000000    -465.98192330

left   ...       0.00000000    -465.83807285
centre ...       0.25000000    -465.93102446
right  ...       0.50000000    -465.98192330
new    ...       0.67758903    -465.99315130

__s__    ...       0.17758903

 ALPHA AFTER:   0.67758902681332267     
  Cycle:     26 Energy:      -465.993151  Gnorm:      0.368010  CPU:    0.150
 Line minimisation2
 ALPHA BEFORE:   0.70394483805666486     
  ** Opt : line minimisation
left   ...       0.00000000    -465.99315130
centre ...       0.17598621    -466.03756360
right  ...       0.35197242    -466.07578454

left   ...       0.00000000    -465.99315130
centre ...       0.17598621    -466.03756360
right  ...       0.35197242    -466.07578454
new    ...       1.35038843    -466.17788573

__s__    ...       0.99841601

left   ...       0.17598621    -466.03756360
centre ...       0.35197242    -466.07578454
right  ...       1.35038843    -466.17788573
new    ...       1.37371737    -466.17794001

__s__    ...       0.02332895

 ALPHA AFTER:    1.3737173748670339     
  Cycle:     27 Energy:      -466.177940  Gnorm:      0.506338  CPU:    0.156
 Line minimisation2
 ALPHA BEFORE:   0.91581158324468925     
  ** Opt : line minimisation
left   ...       0.00000000    -466.17794001
centre ...       0.22895290    -466.25705853
right  ...       0.45790579    -466.32430414

left   ...       0.00000000    -466.17794001
centre ...       0.22895290    -466.25705853
right  ...       0.45790579    -466.32430414
new    ...       1.45790579    -466.47339761

__s__    ...       1.00000000

left   ...       0.22895290    -466.25705853
centre ...       0.45790579    -466.32430414
right  ...       1.45790579    -466.47339761
new    ...       1.59140741    -466.47477232

__s__    ...       0.13350162

 ALPHA AFTER:    1.5914074103014386     
  Cycle:     28 Energy:      -466.474772  Gnorm:      0.491951  CPU:    0.160
 Line minimisation2
 ALPHA BEFORE:    1.0609382735342925     
  ** Opt : line minimisation
left   ...       0.00000000    -466.47477232
centre ...       0.26523457    -466.59820378
right  ...       0.53046914    -466.70110734

left   ...       0.00000000    -466.47477232
centre ...       0.26523457    -466.59820378
right  ...       0.53046914    -466.70110734
new    ...       1.53046914    -466.81042907

__s__    ...       1.00000000

left   ...       0.26523457    -466.59820378
centre ...       0.53046914    -466.70110734
right  ...       1.53046914    -466.81042907
new    ...       1.27866136    -466.83334618

__s__    ...      -0.25180778

 ALPHA AFTER:    1.2786613585628093     
  Cycle:     29 Energy:      -466.833346  Gnorm:      0.486622  CPU:    0.164
 Line minimisation2
 ALPHA BEFORE:    1.7416383850887458     
  ** Opt : line minimisation
left   ...       0.00000000    -466.83334618
centre ...       0.43540960    -467.00493109
right  ...       0.87081919    -467.09976616

left   ...       0.00000000    -466.83334618
centre ...       0.43540960    -467.00493109
right  ...       0.87081919    -467.09976616
new    ...       1.19112328    -467.11587330

__s__    ...       0.32030409

 ALPHA AFTER:    1.1911232787271249     
  Cycle:     30 Energy:      -467.115873  Gnorm:      0.476349  CPU:    0.168
 Line minimisation2
 ALPHA BEFORE:    1.1741129680828652     
  ** Opt : line minimisation
left   ...       0.00000000    -467.11587330
centre ...       0.29352824    -467.23846943
right  ...       0.58705648    -467.32844880

left   ...       0.00000000    -467.11587330
centre ...       0.29352824    -467.23846943
right  ...       0.58705648    -467.32844880
new    ...       1.25004446    -467.40934542

__s__    ...       0.66298798

left   ...       0.29352824    -467.23846943
centre ...       0.58705648    -467.32844880
right  ...       1.25004446    -467.40934542
new    ...       1.23479976    -467.40948003

__s__    ...      -0.01524470

 ALPHA AFTER:    1.2347997615278441     
  Cycle:     31 Energy:      -467.409480  Gnorm:      0.501190  CPU:    0.172
 Line minimisation2
 ALPHA BEFORE:   0.82319984101856269     
  ** Opt : line minimisation
left   ...       0.00000000    -467.40948003
centre ...       0.20579996    -467.51351711
right  ...       0.41159992    -467.58887050

left   ...       0.00000000    -467.40948003
centre ...       0.20579996    -467.51351711
right  ...       0.41159992    -467.58887050
new    ...       0.84934628    -467.58799026

__s__    ...       0.43774636

 ALPHA AFTER:   0.41159992050928135     
  Cycle:     32 Energy:      -467.588871  Gnorm:      0.465750  CPU:    0.176
 Line minimisation2
 ALPHA BEFORE:   0.43434662665809759     
  ** Opt : line minimisation
left   ...       0.00000000    -467.58887050
centre ...       0.10858666    -467.66876958
right  ...       0.21717331    -467.73838658

left   ...       0.00000000    -467.58887050
centre ...       0.10858666    -467.66876958
right  ...       0.21717331    -467.73838658
new    ...       0.89808822    -467.93806713

__s__    ...       0.68091491

left   ...       0.10858666    -467.66876958
centre ...       0.21717331    -467.73838658
right  ...       0.89808822    -467.93806713
new    ...       0.89040833    -467.93818342

__s__    ...      -0.00767989

 ALPHA AFTER:   0.89040832920099089     
  Cycle:     33 Energy:      -467.938183  Gnorm:      0.454427  CPU:    0.180
 Line minimisation2
 ALPHA BEFORE:    1.4761071839769144     
  ** Opt : line minimisation
left   ...       0.00000000    -467.93818342
centre ...       0.36902680    -468.09115470
right  ...       0.73805359    -468.20628428

left   ...       0.00000000    -467.93818342
centre ...       0.36902680    -468.09115470
right  ...       0.73805359    -468.20628428
new    ...       1.67626700    -468.29116306

__s__    ...       0.93821341

left   ...       0.36902680    -468.09115470
centre ...       0.73805359    -468.20628428
right  ...       1.67626700    -468.29116306
new    ...       1.47410635    -468.30156168

__s__    ...      -0.20216065

 ALPHA AFTER:    1.4741063464105106     
  Cycle:     34 Energy:      -468.301562  Gnorm:      0.708274  CPU:    0.184
 Line minimisation2
 ALPHA BEFORE:   0.98273756427367387     
  ** Opt : line minimisation
left   ...       0.00000000    -468.30156168
centre ...       0.24568439    -468.46955300
right  ...       0.49136878    -468.60920003

left   ...       0.00000000    -468.30156168
centre ...       0.24568439    -468.46955300
right  ...       0.49136878    -468.60920003
new    ...       1.49136878    -468.79348367

__s__    ...       1.00000000

left   ...       0.24568439    -468.46955300
centre ...       0.49136878    -468.60920003
right  ...       1.49136878    -468.79348367
new    ...       1.29018341    -468.81626219

__s__    ...      -0.20118537

 ALPHA AFTER:    1.2901834142695201     
  Cycle:     35 Energy:      -468.816262  Gnorm:      0.802477  CPU:    0.189
  ** Hessian calculated **
 Line minimisation2
 ALPHA BEFORE:    1.0000000000000000     
  ** Opt : line minimisation
left   ...       0.00000000    -468.81626219
centre ...       0.25000000    -469.07396892
right  ...       0.50000000    -469.17698412

left   ...       0.00000000    -468.81626219
centre ...       0.25000000    -469.07396892
right  ...       0.50000000    -469.17698412
new    ...       0.54148488    -469.17816405

__s__    ...       0.04148488

 ALPHA AFTER:   0.54148487960858416     
  Cycle:     36 Energy:      -469.178164  Gnorm:      0.420826  CPU:    0.194
 Line minimisation2
 ALPHA BEFORE:   0.75909140151838495     
  ** Opt : line minimisation
left   ...       0.00000000    -469.17816405
centre ...       0.18977285    -469.25012076
right  ...       0.37954570    -469.30990509

left   ...       0.00000000    -469.17816405
centre ...       0.18977285    -469.25012076
right  ...       0.37954570    -469.30990509
new    ...       1.21672405    -469.43483255

__s__    ...       0.83717835

left   ...       0.18977285    -469.25012076
centre ...       0.37954570    -469.30990509
right  ...       1.21672405    -469.43483255
new    ...       1.26025827    -469.43493058

__s__    ...       0.04353422

 ALPHA AFTER:    1.2602582725039404     
  Cycle:     37 Energy:      -469.434931  Gnorm:      0.605619  CPU:    0.198
 Line minimisation2
 ALPHA BEFORE:   0.84017218166929353     
  ** Opt : line minimisation
left   ...       0.00000000    -469.43493058
centre ...       0.21004305    -469.53756479
right  ...       0.42008609    -469.61961994

left   ...       0.00000000    -469.43493058
centre ...       0.21004305    -469.53756479
right  ...       0.42008609    -469.61961994
new    ...       1.15257252    -469.73182637

__s__    ...       0.73248643

left   ...       0.21004305    -469.53756479
centre ...       0.42008609    -469.61961994
right  ...       1.15257252    -469.73182637
new    ...       1.09032591    -469.73319101

__s__    ...      -0.06224661

 ALPHA AFTER:    1.0903259069065674     
  Cycle:     38 Energy:      -469.733191  Gnorm:      0.568667  CPU:    0.203
 Line minimisation2
 ALPHA BEFORE:   0.82706251798753361     
  ** Opt : line minimisation
left   ...       0.00000000    -469.73319101
centre ...       0.20676563    -469.86143330
right  ...       0.41353126    -469.97213856

left   ...       0.00000000    -469.73319101
centre ...       0.20676563    -469.86143330
right  ...       0.41353126    -469.97213856
new    ...       1.41353126    -470.21497257

__s__    ...       1.00000000

left   ...       0.20676563    -469.86143330
centre ...       0.41353126    -469.97213856
right  ...       1.41353126    -470.21497257
new    ...       1.41432342    -470.21494636

__s__    ...       0.00079216

 ALPHA AFTER:    1.4135312589937667     
  Cycle:     39 Energy:      -470.214973  Gnorm:      0.744086  CPU:    0.207
 Line minimisation2
 ALPHA BEFORE:    1.2009761406146120     
  ** Opt : line minimisation
left   ...       0.00000000    -470.21497257
centre ...       0.30024404    -470.43112348
right  ...       0.60048807    -470.56326598

left   ...       0.00000000    -470.21497257
centre ...       0.30024404    -470.43112348
right  ...       0.60048807    -470.56326598
new    ...       0.92264016    -470.60354790

__s__    ...       0.32215209

 ALPHA AFTER:   0.92264015565239632     
  Cycle:     40 Energy:      -470.603548  Gnorm:      0.476982  CPU:    0.210
 Line minimisation2
 ALPHA BEFORE:    2.4836634960665913     
  ** Opt : line minimisation
left   ...       0.00000000    -470.60354790
centre ...       0.62091587    -470.78537368
right  ...       1.24183175    -470.83611907

left   ...       0.00000000    -470.60354790
centre ...       0.62091587    -470.78537368
right  ...       1.24183175    -470.83611907
new    ...       1.17175005    -470.83672261

__s__    ...      -0.07008169

 ALPHA AFTER:    1.1717500530500644     
  Cycle:     41 Energy:      -470.836723  Gnorm:      0.339095  CPU:    0.214
 Line minimisation2
 ALPHA BEFORE:   0.78116670203337624     
  ** Opt : line minimisation
left   ...       0.00000000    -470.83672261
centre ...       0.19529168    -470.89735666
right  ...       0.39058335    -470.94507464

left   ...       0.00000000    -470.83672261
centre ...       0.19529168    -470.89735666
right  ...       0.39058335    -470.94507464
new    ...       1.01443633    -471.00965127

__s__    ...       0.62385297

left   ...       0.19529168    -470.89735666
centre ...       0.39058335    -470.94507464
right  ...       1.01443633    -471.00965127
new    ...       1.00355392    -471.00977147

__s__    ...      -0.01088241

 ALPHA AFTER:    1.0035539159473821     
  Cycle:     42 Energy:      -471.009771  Gnorm:      0.421078  CPU:    0.219
 Line minimisation2
 ALPHA BEFORE:    1.2011716876788572     
  ** Opt : line minimisation
left   ...       0.00000000    -471.00977147
centre ...       0.30029292    -471.09460642
right  ...       0.60058584    -471.16506931

left   ...       0.00000000    -471.00977147
centre ...       0.30029292    -471.09460642
right  ...       0.60058584    -471.16506931
new    ...       1.60058584    -471.27809673

__s__    ...       1.00000000

left   ...       0.30029292    -471.09460642
centre ...       0.60058584    -471.16506931
right  ...       1.60058584    -471.27809673
new    ...       1.70480000    -471.27699196

__s__    ...       0.10421415

 ALPHA AFTER:    1.6005858438394287     
  Cycle:     43 Energy:      -471.278097  Gnorm:      0.374044  CPU:    0.224
 Line minimisation2
 ALPHA BEFORE:    1.1978274109560239     
  ** Opt : line minimisation
left   ...       0.00000000    -471.27809673
centre ...       0.29945685    -471.36270746
right  ...       0.59891371    -471.40292543

left   ...       0.00000000    -471.27809673
centre ...       0.29945685    -471.36270746
right  ...       0.59891371    -471.40292543
new    ...       0.72048052    -471.40380739

__s__    ...       0.12156682

 ALPHA AFTER:   0.72048052352168990     
  Cycle:     44 Energy:      -471.403807  Gnorm:      0.333945  CPU:    0.229
 Line minimisation2
 ALPHA BEFORE:   0.79363768012182201     
  ** Opt : line minimisation
left   ...       0.00000000    -471.40380739
centre ...       0.19840942    -471.46043759
right  ...       0.39681884    -471.49096259

left   ...       0.00000000    -471.40380739
centre ...       0.19840942    -471.46043759
right  ...       0.39681884    -471.49096259
new    ...       0.52961576    -471.49755618

__s__    ...       0.13279692

 ALPHA AFTER:   0.52961576494180518     
  Cycle:     45 Energy:      -471.497556  Gnorm:      0.237477  CPU:    0.234
  ** Hessian calculated **
 Line minimisation2
 ALPHA BEFORE:    1.0000000000000000     
  ** Opt : line minimisation
left   ...       0.00000000    -471.49755618
centre ...       0.25000000    -471.52220034
right  ...       0.50000000    -471.53918831

left   ...       0.00000000    -471.49755618
centre ...       0.25000000    -471.52220034
right  ...       0.50000000    -471.53918831
new    ...       0.92971368    -471.55010176

__s__    ...       0.42971368

left   ...       0.25000000    -471.52220034
centre ...       0.50000000    -471.53918831
right  ...       0.92971368    -471.55010176
new    ...       0.91768571    -471.55012389

__s__    ...      -0.01202797

 ALPHA AFTER:   0.91768571204461757     
  Cycle:     46 Energy:      -471.550124  Gnorm:      0.198706  CPU:    0.241
 Line minimisation2
 ALPHA BEFORE:   0.89780511837542309     
  ** Opt : line minimisation
left   ...       0.00000000    -471.55012389
centre ...       0.22445128    -471.56378835
right  ...       0.44890256    -471.57571171

left   ...       0.00000000    -471.55012389
centre ...       0.22445128    -471.56378835
right  ...       0.44890256    -471.57571171
new    ...       1.44890256    -471.60163745

__s__    ...       1.00000000

left   ...       0.22445128    -471.56378835
centre ...       0.44890256    -471.57571171
right  ...       1.44890256    -471.60163745
new    ...       1.53252078    -471.60172770

__s__    ...       0.08361822

 ALPHA AFTER:    1.5325207812378445     
  Cycle:     47 Energy:      -471.601728  Gnorm:      0.188660  CPU:    0.247
 Line minimisation2
 ALPHA BEFORE:    1.1635883023030364     
  ** Opt : line minimisation
left   ...       0.00000000    -471.60172770
centre ...       0.29089708    -471.61937050
right  ...       0.58179415    -471.63365896

left   ...       0.00000000    -471.60172770
centre ...       0.29089708    -471.61937050
right  ...       0.58179415    -471.63365896
new    ...       1.58179415    -471.65314000

__s__    ...       1.00000000

left   ...       0.29089708    -471.61937050
centre ...       0.58179415    -471.63365896
right  ...       1.58179415    -471.65314000
new    ...       1.50605328    -471.65321230

__s__    ...      -0.07574087

 ALPHA AFTER:    1.5060532763454852     
  Cycle:     48 Energy:      -471.653212  Gnorm:      0.166190  CPU:    0.252
 Line minimisation2
 ALPHA BEFORE:    1.4652610703865085     
  ** Opt : line minimisation
left   ...       0.00000000    -471.65321230
centre ...       0.36631527    -471.67154155
right  ...       0.73263054    -471.68432742

left   ...       0.00000000    -471.65321230
centre ...       0.36631527    -471.67154155
right  ...       0.73263054    -471.68432742
new    ...       1.39438256    -471.69299284

__s__    ...       0.66175202

left   ...       0.36631527    -471.67154155
centre ...       0.73263054    -471.68432742
right  ...       1.39438256    -471.69299284
new    ...       1.37214028    -471.69284586

__s__    ...      -0.02224228

 ALPHA AFTER:    1.3943825584685090     
  Cycle:     49 Energy:      -471.692993  Gnorm:      0.176338  CPU:    0.258
 Line minimisation2
 ALPHA BEFORE:    1.4969599205818949     
  ** Opt : line minimisation
left   ...       0.00000000    -471.69299284
centre ...       0.37423998    -471.71266760
right  ...       0.74847996    -471.72793959

left   ...       0.00000000    -471.69299284
centre ...       0.37423998    -471.71266760
right  ...       0.74847996    -471.72793959
new    ...       1.74847996    -471.74795352

__s__    ...       1.00000000

left   ...       0.37423998    -471.71266760
centre ...       0.74847996    -471.72793959
right  ...       1.74847996    -471.74795352
new    ...       1.90982003    -471.74823061

__s__    ...       0.16134007

 ALPHA AFTER:    1.9098200342033920     
  Cycle:     50 Energy:      -471.748231  Gnorm:      0.316085  CPU:    0.263
 Line minimisation2
 ALPHA BEFORE:    1.2732133561355947     
  ** Opt : line minimisation
left   ...       0.00000000    -471.74823061
centre ...       0.31830334    -471.77372219
right  ...       0.63660668    -471.79683000

left   ...       0.00000000    -471.74823061
centre ...       0.31830334    -471.77372219
right  ...       0.63660668    -471.79683000
new    ...       1.63660668    -471.85192376

__s__    ...       1.00000000

left   ...       0.31830334    -471.77372219
centre ...       0.63660668    -471.79683000
right  ...       1.63660668    -471.85192376
new    ...       2.63660668    -471.87894197

__s__    ...       1.00000000

left   ...       0.63660668    -471.79683000
centre ...       1.63660668    -471.85192376
right  ...       2.63660668    -471.87894197
new    ...       3.09894585    -471.88073745

__s__    ...       0.46233917

 ALPHA AFTER:    3.0989458455422532     
  Cycle:     51 Energy:      -471.880737  Gnorm:      0.434302  CPU:    0.270
 Line minimisation2
 ALPHA BEFORE:    2.0659638970281686     
  ** Opt : line minimisation
left   ...       0.00000000    -471.88073745
centre ...       0.51649097    -471.94355792
right  ...       1.03298195    -471.99680080

left   ...       0.00000000    -471.88073745
centre ...       0.51649097    -471.94355792
right  ...       1.03298195    -471.99680080
new    ...       2.03298195    -472.04424588

__s__    ...       1.00000000

left   ...       0.51649097    -471.94355792
centre ...       1.03298195    -471.99680080
right  ...       2.03298195    -472.04424588
new    ...       2.17954151    -472.04086362

__s__    ...       0.14655956

 ALPHA AFTER:    2.0329819485140845     
  Cycle:     52 Energy:      -472.044246  Gnorm:      0.467358  CPU:    0.276
 Line minimisation2
 ALPHA BEFORE:    2.1470214582599376     
  ** Opt : line minimisation
left   ...       0.00000000    -472.04424588
centre ...       0.53675536    -472.19969713
right  ...       1.07351073    -472.22080236

left   ...       0.00000000    -472.04424588
centre ...       0.53675536    -472.19969713
right  ...       1.07351073    -472.22080236
new    ...       0.88945521    -472.22760680

__s__    ...      -0.18405552

 ALPHA AFTER:   0.88945521002057160     
  Cycle:     53 Energy:      -472.227607  Gnorm:      0.287233  CPU:    0.280
 Line minimisation2
 ALPHA BEFORE:    1.0352030835823636     
  ** Opt : line minimisation
left   ...       0.00000000    -472.22760680
centre ...       0.25880077    -472.28272065
right  ...       0.51760154    -472.32038192

left   ...       0.00000000    -472.22760680
centre ...       0.25880077    -472.28272065
right  ...       0.51760154    -472.32038192
new    ...       0.94667238    -472.34438147

__s__    ...       0.42907083

left   ...       0.25880077    -472.28272065
centre ...       0.51760154    -472.32038192
right  ...       0.94667238    -472.34438147
new    ...       0.94687036    -472.34438096

__s__    ...       0.00019799

 ALPHA AFTER:   0.94667237596717757     
  Cycle:     54 Energy:      -472.344381  Gnorm:      0.227653  CPU:    0.286
 Line minimisation2
 ALPHA BEFORE:   0.68517552058410369     
  ** Opt : line minimisation
left   ...       0.00000000    -472.34438147
centre ...       0.17129388    -472.37154494
right  ...       0.34258776    -472.38855120

left   ...       0.00000000    -472.34438147
centre ...       0.17129388    -472.37154494
right  ...       0.34258776    -472.38855120
new    ...       0.54373907    -472.39624988

__s__    ...       0.20115131

 ALPHA AFTER:   0.54373907229351681     
  Cycle:     55 Energy:      -472.396250  Gnorm:      0.209892  CPU:    0.290
  ** Hessian calculated **
 Line minimisation2
 ALPHA BEFORE:    1.0000000000000000     
  ** Opt : line minimisation
left   ...       0.00000000    -472.39624988
centre ...       0.25000000    -472.43348623
right  ...       0.50000000    -472.46499942

left   ...       0.00000000    -472.39624988
centre ...       0.25000000    -472.43348623
right  ...       0.50000000    -472.46499942
new    ...       1.50000000    -472.52351256

__s__    ...       1.00000000

left   ...       0.25000000    -472.43348623
centre ...       0.50000000    -472.46499942
right  ...       1.50000000    -472.52351256
new    ...       1.54147039    -472.52312399

__s__    ...       0.04147039

 ALPHA AFTER:    1.5000000000000000     
  Cycle:     56 Energy:      -472.523513  Gnorm:      0.053077  CPU:    0.297
 Line minimisation2
 ALPHA BEFORE:    6.4997449083258267     
  ** Opt : line minimisation
left   ...       0.00000000    -472.52351256
centre ...       1.00000000    -472.52914515
right  ...       2.00000000    -472.51396768

left   ...       0.00000000    -472.52351256
centre ...       1.00000000    -472.52914515
right  ...       2.00000000    -472.51396768
new    ...       1.00000000    -472.52914515

__s__    ...      -1.00000000

 ALPHA AFTER:    1.0000000000000000     
  Cycle:     57 Energy:      -472.529145  Gnorm:      0.027636  CPU:    0.300
 Line minimisation2
 ALPHA BEFORE:    3.8709584486553168     
  ** Opt : line minimisation
left   ...       0.00000000    -472.52914515
centre ...       0.96773961    -472.53013313
right  ...       1.93547922    -472.52958716

left   ...       0.00000000    -472.52914515
centre ...       0.96773961    -472.53013313
right  ...       1.93547922    -472.52958716
new    ...       1.10716581    -472.53015068

__s__    ...      -0.82831342

left   ...       0.96773961    -472.53013313
centre ...       1.10716581    -472.53015068
right  ...       1.93547922    -472.52958716
new    ...       1.11302292    -472.53015071

__s__    ...       0.00585711

 ALPHA AFTER:    1.1130229229935595     
  Cycle:     58 Energy:      -472.530151  Gnorm:      0.003060  CPU:    0.304
 Line minimisation2
 ALPHA BEFORE:    5.9283134642846145     
  ** Opt : line minimisation
left   ...       0.00000000    -472.53015071
centre ...       1.00000000    -472.53016917
right  ...       2.00000000    -472.53015462

left   ...       0.00000000    -472.53015071
centre ...       1.00000000    -472.53016917
right  ...       2.00000000    -472.53015462
new    ...       1.05923385    -472.53016923

__s__    ...      -0.94076615

 ALPHA AFTER:    1.0592338473400058     
  Cycle:     59 Energy:      -472.530169  Gnorm:      0.001146  CPU:    0.308
 Line minimisation2
 ALPHA BEFORE:    2.9553393958468868     
  ** Opt : line minimisation
left   ...       0.00000000    -472.53016923
centre ...       0.73883485    -472.53017068
right  ...       1.47766970    -472.53016955

left   ...       0.00000000    -472.53016923
centre ...       0.73883485    -472.53017068
right  ...       1.47766970    -472.53016955
new    ...       0.78500649    -472.53017069

__s__    ...      -0.69266321

 ALPHA AFTER:   0.78500649234661801     


  **** Optimisation achieved ****


  Final energy =    -472.53017069 eV
  Final Gnorm  =       0.00033570

  Components of energy : 

--------------------------------------------------------------------------------
  Interatomic potentials     =          69.66116761 eV    
  Monopole - monopole (real) =        -259.20315868 eV    
  Monopole - monopole (recip)=        -282.98817962 eV    
  Monopole - monopole (total)=        -542.19133830 eV    
--------------------------------------------------------------------------------
  Total lattice energy       =        -472.53017069 eV    
--------------------------------------------------------------------------------
  Total lattice energy       =          -45591.9382 kJ/(mole unit cells)
--------------------------------------------------------------------------------

  Final fractional coordinates of atoms :

--------------------------------------------------------------------------------
   No.  Atomic        x           y          z          Radius
        Label       (Frac)      (Frac)     (Frac)       (Angs) 
--------------------------------------------------------------------------------
     1  O     c     0.000000    0.500000    0.250000    0.000000
     2  O     c     0.401111    0.555801    0.229270    0.000000
     3  O     c     0.220951    0.593009    0.566937    0.000000
     4  O     c     0.339954    0.079421    0.509580    0.000000
     5  O     c     0.816651    0.498815    0.722366    0.000000
     6  O     c     0.118992    0.986418    0.192645    0.000000
     7  O     c     0.938840    0.023637    0.530314    0.000000
     8  O     c     0.523285    0.080621    0.037220    0.000000
     9  O     c     0.169968    0.289716    0.879793    0.000000
    10  Sr    c     0.669970    0.289721    0.379795    0.000000
    11  Sr    c     0.595416    0.909989    0.710499    0.000000
    12  Sr    c     0.744528    0.669451    0.049090    0.000000
    13  Ti    c     0.096572    0.324868    0.655350    0.000000
    14  Ti    c     0.243366    0.254567    0.104237    0.000000
    15  Ti    c     0.169975    0.789716    0.379792    0.000000
--------------------------------------------------------------------------------

  Final Cartesian lattice vectors (Angstroms) :

        5.911678    0.063485    0.166035
        0.063485    5.207144   -0.518065
        0.332069   -1.036131    7.549449


  Final cell parameters and derivatives :

--------------------------------------------------------------------------------
       a            5.914349 Angstrom     dE/de1(xx)     0.003636 eV/strain
       b            5.233237 Angstrom     dE/de2(yy)     0.004366 eV/strain
       c            7.627451 Angstrom     dE/de3(zz)     0.000603 eV/strain
       alpha      103.451356 Degrees      dE/de4(yz)    -0.001765 eV/strain
       beta        85.994956 Degrees      dE/de5(xz)    -0.000183 eV/strain
       gamma       88.852450 Degrees      dE/de6(xy)     0.001526 eV/strain
--------------------------------------------------------------------------------

  Primitive cell volume =           228.881695 Angs**3

  Density of cell =      3.993947 g/cm**3

  Non-primitive cell volume =           228.881695 Angs**3


  Final internal derivatives :

--------------------------------------------------------------------------------
   No.  Atomic          a             b             c           Radius
        Label          (eV)          (eV)          (eV)        (eV/Angs)
--------------------------------------------------------------------------------
      1 O     c       0.000000      0.000000      0.000000      0.000000
      2 O     c       0.004163      0.000967      0.001415      0.000000
      3 O     c       0.003204      0.002795     -0.003266      0.000000
      4 O     c       0.006744     -0.001794     -0.002963      0.000000
      5 O     c      -0.003960     -0.000207      0.000782      0.000000
      6 O     c      -0.001036     -0.001571      0.001161      0.000000
      7 O     c      -0.002224      0.000594     -0.003394      0.000000
      8 O     c       0.000156      0.001031      0.000641      0.000000
      9 O     c       0.000043     -0.000316      0.002582      0.000000
     10 Sr    c       0.000007      0.000184      0.000866      0.000000
     11 Sr    c      -0.000420     -0.000558      0.001452      0.000000
     12 Sr    c       0.000701      0.000373     -0.001579      0.000000
     13 Ti    c      -0.004450     -0.000967      0.004971      0.000000
     14 Ti    c       0.000168      0.002325     -0.002771      0.000000
     15 Ti    c      -0.000427     -0.000135      0.001859      0.000000
--------------------------------------------------------------------------------
  Maximum abs         0.006744      0.002795      0.004971      0.000000
--------------------------------------------------------------------------------


  Time to end of optimisation =       0.3113 seconds

 Exiting ------OPTIONS------

  Peak dynamic memory used =       0.60 MB 


  Timing analysis for GULP :

--------------------------------------------------------------------------------
  Task / Subroutine                                          Time (Seconds)
--------------------------------------------------------------------------------
  Calculation of reciprocal space energy and derivatives          0.0368
  Calculation of real space energy and derivatives                0.2641
  Calculation of matrix inversion                                 0.0001
  Global summation overhead                                       0.0002
--------------------------------------------------------------------------------
  Total CPU time                                                  0.3113
--------------------------------------------------------------------------------


  Job Finished at 12:02.26  4th February   2020                               

