********************************************************************************
*                       GENERAL UTILITY LATTICE PROGRAM                        *
*                                 Julian Gale                                  *
*                       Curtin Institute for Computation                       *
*                           Department of Chemistry                            *
*                    Curtin University, Western Australia                      *
********************************************************************************
* Version = 5.1.1 * Last modified =  25th August 2019                          *
********************************************************************************
*  optimise     - perform optimisation run                                     *
*  conp         - constant pressure calculation                                *
*  nosymmetry   - turn off symmetry after initial structure generation         *
*  full         - generate full unit cell when symmetry is removed             *
*  conjugate    - use conjugate gradients minimiser                            *
********************************************************************************
* ASE calculation                                                              *
********************************************************************************


  Job Started  at 12:04.24  4th February   2020                               

  Number of CPUs =     1


  Total number of configurations input =      1

********************************************************************************
*  Input for Configuration =   1                                               *
********************************************************************************

  Formula = Sr3Ti3O9                                                    

  Number of irreducible atoms/shells =      15


  Total number atoms/shells =      15

  Dimensionality = 3               :  Bulk   



  Cartesian lattice vectors (Angstroms) :

       12.000000    0.000000    0.000000
        0.000000    4.000000    0.000000
        0.000000    0.000000    4.000000

  Cell parameters (Angstroms/Degrees):

  a =      12.0000    alpha =  90.0000
  b =       4.0000    beta  =  90.0000
  c =       4.0000    gamma =  90.0000

  Initial cell volume =         192.000000 Angs**3

  Temperature of configuration =  0.000     K 

  Pressure of configuration =         0.000 GPa 

  Fractional coordinates of asymmetric unit :

--------------------------------------------------------------------------------
   No.  Atomic       x           y          z         Charge      Occupancy
        Label      (Frac)      (Frac)     (Frac)        (e)         (Frac)  
--------------------------------------------------------------------------------
      1 Sr    c    0.999960    0.999870    0.000550     2.00000    1.000000    
      2 Ti    c    0.166670 *  0.500120 *  0.500000 *   4.00000    1.000000    
      3 O     c    0.999860 *  0.499900 *  0.500580 *  -2.00000    1.000000    
      4 O     c    0.166680 *  0.000170 *  0.499980 *  -2.00000    1.000000    
      5 O     c    0.166710 *  0.500200 *  0.999660 *  -2.00000    1.000000    
      6 Sr    c    0.333470 *  0.000350 *  0.000010 *   2.00000    1.000000    
      7 Ti    c    0.500270 *  0.499340 *  0.499380 *   4.00000    1.000000    
      8 O     c    0.333310 *  0.499790 *  0.499620 *  -2.00000    1.000000    
      9 O     c    0.499980 *  0.999440 *  0.500200 *  -2.00000    1.000000    
     10 O     c    0.500030 *  0.500400 *  0.000150 *  -2.00000    1.000000    
     11 Sr    c    0.666540 *  0.999940 *  0.999970 *   2.00000    1.000000    
     12 Ti    c    0.833350 *  0.499710 *  0.499670 *   4.00000    1.000000    
     13 O     c    0.666530 *  0.499700 *  0.500090 *  -2.00000    1.000000    
     14 O     c    0.833150 *  0.000100 *  0.500050 *  -2.00000    1.000000    
     15 O     c    0.833380 *  0.500160 *  0.000120 *  -2.00000    1.000000    
--------------------------------------------------------------------------------



********************************************************************************
*  General input information                                                   *
********************************************************************************

  Species output for all configurations : 

--------------------------------------------------------------------------------
  Species    Type    Atomic    Atomic    Charge       Radii (Angs)     Library
                     Number     Mass       (e)     Cova   Ionic  VDW   Symbol
--------------------------------------------------------------------------------
    Sr       Core       38      87.62   2.000000   1.120  0.000  1.670          
    Ti       Core       22      47.88   4.000000   1.470  0.000  2.190          
    O        Core        8      16.00  -2.000000   0.730  0.000  1.360          
--------------------------------------------------------------------------------


  Lattice summation method               =    Ewald          (3-D)
                                         =    Parry          (2-D)
                                         =    Saunders et al (1-D)
  Accuracy factor for lattice sums       =   12.000


  Time limit = Infinity

  Maximum range for interatomic potentials =    100000.000000 Angstroms

  General interatomic potentials :

--------------------------------------------------------------------------------
Atom  Types   Potential      Parameter       Value         Units   Cutoffs(Ang)
  1     2                                                            Min /  Max 
--------------------------------------------------------------------------------
O    c Sr   c Buckingham    Buckingham A     1952.3900    eV        0.000 10.000
                            Buckingham rho  0.33685000    Ang       
                            Buckingham C     19.220000    eV*Ang^6  
--------------------------------------------------------------------------------
O    c Ti   c Buckingham    Buckingham A     4590.7279    eV        0.000 10.000
                            Buckingham rho  0.26100000    Ang       
                            Buckingham C     0.0000000    eV*Ang^6  
--------------------------------------------------------------------------------
O    c O    c Buckingham    Buckingham A     1388.7700    eV        0.000 10.000
                            Buckingham rho  0.36262000    Ang       
                            Buckingham C     175.00000    eV*Ang^6  
--------------------------------------------------------------------------------
 Calling ------OPTIONS------

********************************************************************************
*  Output for configuration   1                                                *
********************************************************************************


  Components of energy : 

--------------------------------------------------------------------------------
  Interatomic potentials     =          59.32156790 eV    
  Monopole - monopole (real) =        -234.57439053 eV    
  Monopole - monopole (recip)=        -300.12335562 eV    
  Monopole - monopole (total)=        -534.69774615 eV    
--------------------------------------------------------------------------------
  Total lattice energy       =        -475.37617825 eV    
--------------------------------------------------------------------------------
  Total lattice energy       =          -45866.5344 kJ/(mole unit cells)
--------------------------------------------------------------------------------


  Number of variables =       48

  Maximum number of calculations  =          1000
  Maximum Hessian update interval =            10
  Maximum step size               =   1.000000000
  Maximum parameter tolerance     =   0.000010000
  Maximum function  tolerance     =   0.000010000
  Maximum gradient  tolerance     =   0.001000000
  Maximum gradient  component     =   0.010000000

  Cell parameters to be optimised using strains

  Conjugate gradient optimiser to be used

  Lower half triangular hessian to be used

  Minimiser to switch to BFGS with exact hessian
  When gradient norm is less than     0.500000

  Start of bulk optimisation :

  Cycle:      0 Energy:      -475.376178  Gnorm:      0.418174  CPU:    0.011
  ** Hessian calculated **
 Line minimisation2
 ALPHA BEFORE:    1.0000000000000000     
  ** Opt : line minimisation
left   ...       0.00000000    -475.37617825
centre ...       0.25000000    -475.46192301
right  ...       0.50000000    -475.52276742

left   ...       0.00000000    -475.37617825
centre ...       0.25000000    -475.46192301
right  ...       0.50000000    -475.52276742
new    ...       0.98587946    -475.56714681

__s__    ...       0.48587946

left   ...       0.25000000    -475.46192301
centre ...       0.50000000    -475.52276742
right  ...       0.98587946    -475.56714681
new    ...       0.96398096    -475.56730164

__s__    ...      -0.02189851

 ALPHA AFTER:   0.96398095671689776     
  Cycle:      1 Energy:      -475.567302  Gnorm:      0.005665  CPU:    0.024
 Line minimisation2
 ALPHA BEFORE:    76.630772546150908     
  ** Opt : line minimisation
left   ...       0.00000000    -475.56730164
centre ...       1.00000000    -475.56731778
right  ...       2.00000000    -475.56729052

left   ...       0.00000000    -475.56730164
centre ...       1.00000000    -475.56731778
right  ...       2.00000000    -475.56729052
new    ...       1.00000000    -475.56731778

__s__    ...      -1.00000000

 ALPHA AFTER:    1.0000000000000000     
  Cycle:      2 Energy:      -475.567318  Gnorm:      0.001076  CPU:    0.029
 Line minimisation2
 ALPHA BEFORE:    6.4061542839438088     
  ** Opt : line minimisation
left   ...       0.00000000    -475.56731778
centre ...       1.00000000    -475.56731824
right  ...       2.00000000    -475.56731774

left   ...       0.00000000    -475.56731778
centre ...       1.00000000    -475.56731824
right  ...       2.00000000    -475.56731774
new    ...       1.00000000    -475.56731824

__s__    ...      -1.00000000

 ALPHA AFTER:    1.0000000000000000     


  **** Optimisation achieved ****


  Final energy =    -475.56731824 eV
  Final Gnorm  =       0.00004522

  Components of energy : 

--------------------------------------------------------------------------------
  Interatomic potentials     =          65.00956400 eV    
  Monopole - monopole (real) =        -237.15341410 eV    
  Monopole - monopole (recip)=        -303.42346814 eV    
  Monopole - monopole (total)=        -540.57688224 eV    
--------------------------------------------------------------------------------
  Total lattice energy       =        -475.56731824 eV    
--------------------------------------------------------------------------------
  Total lattice energy       =          -45884.9765 kJ/(mole unit cells)
--------------------------------------------------------------------------------

  Final fractional coordinates of atoms :

--------------------------------------------------------------------------------
   No.  Atomic        x           y          z          Radius
        Label       (Frac)      (Frac)     (Frac)       (Angs) 
--------------------------------------------------------------------------------
     1  Sr    c     0.999960    0.999870    0.000550    0.000000
     2  Ti    c     0.166627    0.499870    0.500550    0.000000
     3  O     c     0.999960    0.499870    0.500550    0.000000
     4  O     c     0.166627    0.999870    0.500550    0.000000
     5  O     c     0.166627    0.499870    0.000550    0.000000
     6  Sr    c     0.333294    0.999870    0.000550    0.000000
     7  Ti    c     0.499960    0.499870    0.500550    0.000000
     8  O     c     0.333294    0.499870    0.500550    0.000000
     9  O     c     0.499960    0.999870    0.500550    0.000000
    10  O     c     0.499960    0.499870    0.000549    0.000000
    11  Sr    c     0.666627    0.999870    0.000550    0.000000
    12  Ti    c     0.833293    0.499870    0.500550    0.000000
    13  O     c     0.666627    0.499870    0.500550    0.000000
    14  O     c     0.833294    0.999870    0.500550    0.000000
    15  O     c     0.833294    0.499870    0.000550    0.000000
--------------------------------------------------------------------------------

  Final Cartesian lattice vectors (Angstroms) :

       11.869487   -0.000000   -0.000000
       -0.000000    3.956498    0.000000
       -0.000000    0.000000    3.956496


  Final cell parameters and derivatives :

--------------------------------------------------------------------------------
       a           11.869487 Angstrom     dE/de1(xx)     0.000613 eV/strain
       b            3.956498 Angstrom     dE/de2(yy)     0.000792 eV/strain
       c            3.956496 Angstrom     dE/de3(zz)     0.000658 eV/strain
       alpha       90.000000 Degrees      dE/de4(yz)     0.000001 eV/strain
       beta        90.000000 Degrees      dE/de5(xz)    -0.000003 eV/strain
       gamma       90.000000 Degrees      dE/de6(xy)    -0.000001 eV/strain
--------------------------------------------------------------------------------

  Primitive cell volume =           185.803393 Angs**3

  Density of cell =      4.919939 g/cm**3

  Non-primitive cell volume =           185.803393 Angs**3


  Final internal derivatives :

--------------------------------------------------------------------------------
   No.  Atomic          a             b             c           Radius
        Label          (eV)          (eV)          (eV)        (eV/Angs)
--------------------------------------------------------------------------------
      1 Sr    c       0.000000      0.000000      0.000000      0.000000
      2 Ti    c      -0.000661      0.000011     -0.000086      0.000000
      3 O     c       0.000718      0.000012     -0.000062      0.000000
      4 O     c      -0.000159     -0.000031     -0.000044      0.000000
      5 O     c      -0.000177     -0.000006      0.000156      0.000000
      6 Sr    c      -0.000043      0.000018      0.000022      0.000000
      7 Ti    c      -0.000437      0.000064      0.000233      0.000000
      8 O     c       0.001130     -0.000034     -0.000006      0.000000
      9 O     c       0.000267      0.000073     -0.000020      0.000000
     10 O     c       0.000248     -0.000078     -0.000220      0.000000
     11 Sr    c      -0.000232     -0.000005      0.000023      0.000000
     12 Ti    c      -0.000605      0.000119      0.000152      0.000000
     13 O     c       0.000116     -0.000017     -0.000022      0.000000
     14 O     c       0.000026     -0.000122     -0.000022      0.000000
     15 O     c      -0.000060     -0.000006     -0.000113      0.000000
--------------------------------------------------------------------------------
  Maximum abs         0.001130      0.000122      0.000233      0.000000
--------------------------------------------------------------------------------


  Time to end of optimisation =       0.0331 seconds

 Exiting ------OPTIONS------

  Peak dynamic memory used =       0.60 MB 


  Timing analysis for GULP :

--------------------------------------------------------------------------------
  Task / Subroutine                                          Time (Seconds)
--------------------------------------------------------------------------------
  Calculation of reciprocal space energy and derivatives          0.0034
  Calculation of real space energy and derivatives                0.0226
  Calculation of matrix inversion                                 0.0001
--------------------------------------------------------------------------------
  Total CPU time                                                  0.0331
--------------------------------------------------------------------------------


  Job Finished at 12:04.25  4th February   2020                               

