********************************************************************************
*                       GENERAL UTILITY LATTICE PROGRAM                        *
*                                 Julian Gale                                  *
*                       Curtin Institute for Computation                       *
*                           Department of Chemistry                            *
*                    Curtin University, Western Australia                      *
********************************************************************************
* Version = 5.1.1 * Last modified =  25th August 2019                          *
********************************************************************************
*  optimise     - perform optimisation run                                     *
*  conp         - constant pressure calculation                                *
*  nosymmetry   - turn off symmetry after initial structure generation         *
*  full         - generate full unit cell when symmetry is removed             *
********************************************************************************
* ASE calculation                                                              *
********************************************************************************


  Job Started  at 11:49.49  4th February   2020                               

  Number of CPUs =     1


  Total number of configurations input =      1

********************************************************************************
*  Input for Configuration =   1                                               *
********************************************************************************

  Formula = O9Sr3Ti3                                                    

  Number of irreducible atoms/shells =      15


  Total number atoms/shells =      15

  Dimensionality = 3               :  Bulk   



  Cartesian lattice vectors (Angstroms) :

        4.000000    0.000000    0.000000
        0.000000    6.000000    0.000000
        0.000000    0.000000   10.000000

  Cell parameters (Angstroms/Degrees):

  a =       4.0000    alpha =  90.0000
  b =       6.0000    beta  =  90.0000
  c =      10.0000    gamma =  90.0000

  Initial cell volume =         240.000000 Angs**3

  Temperature of configuration =  0.000     K 

  Pressure of configuration =         0.000 GPa 

  Fractional coordinates of asymmetric unit :

--------------------------------------------------------------------------------
   No.  Atomic       x           y          z         Charge      Occupancy
        Label      (Frac)      (Frac)     (Frac)        (e)         (Frac)  
--------------------------------------------------------------------------------
      1 O     c    0.000000    0.333330    0.800000    -2.00000    1.000000    
      2 O     c    0.000000 *  0.000000 *  0.800000 *  -2.00000    1.000000    
      3 O     c    0.500000 *  0.666670 *  0.600000 *  -2.00000    1.000000    
      4 O     c    0.000000 *  0.666670 *  0.600000 *  -2.00000    1.000000    
      5 O     c    0.000000 *  0.333330 *  0.000000 *  -2.00000    1.000000    
      6 O     c    0.000000 *  0.666670 *  0.800000 *  -2.00000    1.000000    
      7 O     c    0.000000 *  0.000000 *  0.200000 *  -2.00000    1.000000    
      8 O     c    0.500000 *  0.333330 *  0.200000 *  -2.00000    1.000000    
      9 O     c    0.000000 *  0.000000 *  0.000000 *  -2.00000    1.000000    
     10 Sr    c    0.750000 *  0.166670 *  0.900000 *   2.00000    1.000000    
     11 Sr    c    0.250000 *  0.166670 *  0.900000 *   2.00000    1.000000    
     12 Sr    c    0.250000 *  0.166670 *  0.100000 *   2.00000    1.000000    
     13 Ti    c    0.750000 *  0.166670 *  0.700000 *   4.00000    1.000000    
     14 Ti    c    0.250000 *  0.166670 *  0.500000 *   4.00000    1.000000    
     15 Ti    c    0.250000 *  0.166670 *  0.700000 *   4.00000    1.000000    
--------------------------------------------------------------------------------



********************************************************************************
*  General input information                                                   *
********************************************************************************

  Species output for all configurations : 

--------------------------------------------------------------------------------
  Species    Type    Atomic    Atomic    Charge       Radii (Angs)     Library
                     Number     Mass       (e)     Cova   Ionic  VDW   Symbol
--------------------------------------------------------------------------------
    O        Core        8      16.00  -2.000000   0.730  0.000  1.360          
    Sr       Core       38      87.62   2.000000   1.120  0.000  1.670          
    Ti       Core       22      47.88   4.000000   1.470  0.000  2.190          
--------------------------------------------------------------------------------


  Lattice summation method               =    Ewald          (3-D)
                                         =    Parry          (2-D)
                                         =    Saunders et al (1-D)
  Accuracy factor for lattice sums       =   12.000


  Time limit =      15.00 seconds

  Maximum range for interatomic potentials =    100000.000000 Angstroms

  General interatomic potentials :

--------------------------------------------------------------------------------
Atom  Types   Potential      Parameter       Value         Units   Cutoffs(Ang)
  1     2                                                            Min /  Max 
--------------------------------------------------------------------------------
O    c Sr   c Buckingham    Buckingham A     1952.3900    eV        0.000 10.000
                            Buckingham rho  0.33685000    Ang       
                            Buckingham C     19.220000    eV*Ang^6  
--------------------------------------------------------------------------------
O    c Ti   c Buckingham    Buckingham A     4590.7279    eV        0.000 10.000
                            Buckingham rho  0.26100000    Ang       
                            Buckingham C     0.0000000    eV*Ang^6  
--------------------------------------------------------------------------------
O    c O    c Buckingham    Buckingham A     1388.7700    eV        0.000 10.000
                            Buckingham rho  0.36262000    Ang       
                            Buckingham C     175.00000    eV*Ang^6  
--------------------------------------------------------------------------------
 Calling ------OPTIONS------

********************************************************************************
*  Output for configuration   1                                                *
********************************************************************************


  Components of energy : 

--------------------------------------------------------------------------------
  Interatomic potentials     =         184.55920138 eV    
  Monopole - monopole (real) =          -3.58671899 eV    
  Monopole - monopole (recip)=        -195.13406381 eV    
  Monopole - monopole (total)=        -198.72078279 eV    
--------------------------------------------------------------------------------
  Total lattice energy       =         -14.16158142 eV    
--------------------------------------------------------------------------------
  Total lattice energy       =           -1366.3761 kJ/(mole unit cells)
--------------------------------------------------------------------------------


  Number of variables =       48

  Maximum number of calculations  =          1000
  Maximum Hessian update interval =            10
  Maximum step size               =   1.000000000
  Maximum parameter tolerance     =   0.000010000
  Maximum function  tolerance     =   0.000010000
  Maximum gradient  tolerance     =   0.001000000
  Maximum gradient  component     =   0.010000000

  Cell parameters to be optimised using strains

  Newton-Raphson optimiser to be used

  BFGS hessian update to be used

  Lower half triangular hessian to be used

  Start of bulk optimisation :

  Cycle:      0 Energy:       -14.161581  Gnorm:     35.512526  CPU:    0.014
  ** Hessian calculated **
 Line minimisation2
 ALPHA BEFORE:    1.0000000000000000     
  ** Opt : line minimisation
left   ...       0.00000000     -14.16158142
centre ...       0.25000000     -23.08774784
right  ...       0.50000000     -31.11664048

left   ...       0.00000000     -14.16158142
centre ...       0.25000000     -23.08774784
right  ...       0.50000000     -31.11664048
new    ...       1.50000000     -53.86050424

__s__    ...       1.00000000

left   ...       0.25000000     -23.08774784
centre ...       0.50000000     -31.11664048
right  ...       1.50000000     -53.86050424
new    ...       2.50000000     -58.87369094

__s__    ...       1.00000000

left   ...       0.50000000     -31.11664048
centre ...       1.50000000     -53.86050424
right  ...       2.50000000     -58.87369094
new    ...       2.28274085     -59.53156609

__s__    ...      -0.21725915

left   ...       1.50000000     -53.86050424
centre ...       2.28274085     -59.53156609
right  ...       2.50000000     -58.87369094
new    ...       2.24399344     -59.54120879

__s__    ...      -0.03874741

 ALPHA AFTER:    2.2439934382753832     
  Cycle:      1 Energy:       -59.541209  Gnorm:     30.883041  CPU:    0.029
  ** Hessian calculated **
 Line minimisation2
 ALPHA BEFORE:    1.0000000000000000     
  ** Opt : line minimisation
left   ...       0.00000000     -59.54120879
centre ...       0.25000000     -74.61792994
right  ...       0.50000000     -89.15765489

left   ...       0.00000000     -59.54120879
centre ...       0.25000000     -74.61792994
right  ...       0.50000000     -89.15765489
new    ...       1.50000000    -127.59830330

__s__    ...       1.00000000

left   ...       0.25000000     -74.61792994
centre ...       0.50000000     -89.15765489
right  ...       1.50000000    -127.59830330
new    ...       2.21843488    -172.21320204

__s__    ...       0.71843488

left   ...       0.50000000     -89.15765489
centre ...       1.50000000    -127.59830330
right  ...       2.21843488    -172.21320204
new    ...       3.21843488 -131343.35480664

__s__    ...       1.00000000

left   ...       1.50000000    -127.59830330
centre ...       2.21843488    -172.21320204
right  ...       3.21843488 -131343.35480664
new    ...       4.21843488   -9025.90323096

__s__    ...       1.00000000

left   ...       2.21843488    -172.21320204
centre ...       3.21843488 -131343.35480664
right  ...       4.21843488   -9025.90323096
new    ...       3.23589857 -167084.90325364

__s__    ...      -0.98253631

left   ...       3.21843488 -131343.35480664
centre ...       3.23589857 -167084.90325364
right  ...       4.21843488   -9025.90323096
new    ...       3.69072978*****************

__s__    ...       0.45483121

 ALPHA AFTER:    3.6907297776037917     
  Cycle:      2 Energy:-166598376.519750  Gnorm:**************  CPU:    0.049
  ** Hessian calculated **
 Line minimisation2
 ALPHA BEFORE:    1.0000000000000000     
  ** Opt : line minimisation
left   ...       0.00000000*****************
centre ...       0.25000000*****************
right  ...      -0.25000000*****************

left   ...      -0.25000000*****************
centre ...       0.00000000*****************
right  ...       0.25000000*****************
new    ...      -0.75000000*****************

__s__    ...      -0.50000000

left   ...      -0.75000000*****************
centre ...      -0.25000000*****************
right  ...       0.00000000*****************
new    ...      -1.48694841*****************

__s__    ...      -0.73694841

left   ...      -1.48694841*****************
centre ...      -0.75000000*****************
right  ...      -0.25000000*****************
new    ...      -2.22389681*****************

__s__    ...      -0.73694841

left   ...      -2.22389681*****************
centre ...      -1.48694841*****************
right  ...      -0.75000000*****************
new    ...      -2.96084522*****************

__s__    ...      -0.73694841

left   ...      -2.96084522*****************
centre ...      -2.22389681*****************
right  ...      -1.48694841*****************
new    ...      -3.69779362*****************

__s__    ...      -0.73694841

left   ...      -3.69779362*****************
centre ...      -2.96084522*****************
right  ...      -2.22389681*****************
new    ...      -4.43474203*****************

__s__    ...      -0.73694841

 ALPHA AFTER:    4.4347420263559094     
  Cycle:      3 Energy:-267335786.073149  Gnorm:**************  CPU:    0.071
  ** Hessian calculated **
 Line minimisation2
 ALPHA BEFORE:    1.0000000000000000     
  ** Opt : line minimisation
left   ...       0.00000000*****************
centre ...       0.25000000*****************
right  ...      -0.25000000*****************

left   ...      -0.25000000*****************
centre ...       0.00000000*****************
right  ...       0.25000000*****************
new    ...      -0.74186093*****************

__s__    ...      -0.49186093

left   ...      -0.74186093*****************
centre ...      -0.25000000*****************
right  ...       0.00000000*****************
new    ...      -1.23372186*****************

__s__    ...      -0.49186093

left   ...      -1.23372186*****************
centre ...      -0.74186093*****************
right  ...      -0.25000000*****************
new    ...      -1.72558279*****************

__s__    ...      -0.49186093

left   ...      -1.72558279*****************
centre ...      -1.23372186*****************
right  ...      -0.74186093*****************
new    ...      -2.21744372*****************

__s__    ...      -0.49186093

left   ...      -2.21744372*****************
centre ...      -1.72558279*****************
right  ...      -1.23372186*****************
new    ...      -2.70930465*****************

__s__    ...      -0.49186093

left   ...      -2.70930465*****************
centre ...      -2.21744372*****************
right  ...      -1.72558279*****************
new    ...      -3.20116558*****************

__s__    ...      -0.49186093

 ALPHA AFTER:    3.2011655792382774     
  Cycle:      4 Energy:-464714120.244826  Gnorm:**************  CPU:    0.092
  ** Hessian calculated **
 Line minimisation2
 ALPHA BEFORE:    1.0000000000000000     
  ** Opt : line minimisation
left   ...       0.00000000*****************
centre ...       0.25000000*****************
right  ...      -0.25000000*****************

left   ...      -0.25000000*****************
centre ...       0.00000000*****************
right  ...       0.25000000*****************
new    ...      -0.58844967*****************

__s__    ...      -0.33844967

left   ...      -0.58844967*****************
centre ...      -0.25000000*****************
right  ...       0.00000000*****************
new    ...      -0.27904059*****************

__s__    ...       0.30940908

left   ...      -0.27904059*****************
centre ...      -0.25000000*****************
right  ...       0.00000000*****************
new    ...      -0.24676131*****************

__s__    ...       0.03227928

left   ...      -0.27904059*****************
centre ...      -0.25000000*****************
right  ...      -0.24676131*****************
new    ...      -0.25425281*****************

__s__    ...      -0.00749149

left   ...      -0.27904059*****************
centre ...      -0.25425281*****************
right  ...      -0.25000000*****************
new    ...      -0.25423486*****************

__s__    ...       0.00001795

left   ...      -0.25425281*****************
centre ...      -0.25423486*****************
right  ...      -0.25000000*****************
new    ...      -0.25421822*****************

__s__    ...       0.00001664

 ALPHA AFTER:   0.25421822188786070     
  Cycle:      5 Energy:*****************  Gnorm:**************  CPU:    0.125
  ** Hessian calculated **
 Line minimisation2
 ALPHA BEFORE:    1.0000000000000000     
  ** Opt : line minimisation
left   ...       0.00000000*****************
centre ...       0.25000000*****************
right  ...      -0.25000000*****************

left   ...      -0.25000000*****************
centre ...       0.00000000*****************
right  ...       0.25000000*****************
new    ...      -0.53006538*****************

__s__    ...      -0.28006538

left   ...      -0.53006538*****************
centre ...      -0.25000000*****************
right  ...       0.00000000*****************
new    ...      -0.34139961*****************

__s__    ...       0.18866578

left   ...      -0.53006538*****************
centre ...      -0.34139961*****************
right  ...      -0.25000000*****************
new    ...      -0.37067368*****************

__s__    ...      -0.02927407

left   ...      -0.53006538*****************
centre ...      -0.37067368*****************
right  ...      -0.34139961*****************
new    ...      -0.37374598*****************

__s__    ...      -0.00307230

left   ...      -0.37374598*****************
centre ...      -0.37067368*****************
right  ...      -0.34139961*****************
new    ...      -0.37150669*****************

__s__    ...       0.00223929

left   ...      -0.37374598*****************
centre ...      -0.37150669*****************
right  ...      -0.37067368*****************
new    ...      -0.37152394*****************

__s__    ...      -0.00001726

 ALPHA AFTER:   0.37152394208554751     
  Cycle:      6 Energy:*****************  Gnorm:**************  CPU:    0.165
  ** Hessian calculated **
 Line minimisation2
 ALPHA BEFORE:    1.0000000000000000     


  **** Too many reciprocal lattice vectors needed ****
  **** Probably due to unphysical cell dimensions ****

  Current cell parameters : 

    a =   2.3736    alpha =  91.9759
    b =   6.0582    beta  = 166.6935
    c =  13.4582    gamma =  77.8037

 Program terminated by processor     0 in               kindex

