********************************************************************************
*                       GENERAL UTILITY LATTICE PROGRAM                        *
*                                 Julian Gale                                  *
*                       Curtin Institute for Computation                       *
*                           Department of Chemistry                            *
*                    Curtin University, Western Australia                      *
********************************************************************************
* Version = 5.1.1 * Last modified =  25th August 2019                          *
********************************************************************************
*  optimise     - perform optimisation run                                     *
*  conp         - constant pressure calculation                                *
*  nosymmetry   - turn off symmetry after initial structure generation         *
*  full         - generate full unit cell when symmetry is removed             *
********************************************************************************
* ASE calculation                                                              *
********************************************************************************


  Job Started  at 13:26.15 21st February   2020                               

  Number of CPUs =     1


  Total number of configurations input =      1

********************************************************************************
*  Input for Configuration =   1                                               *
********************************************************************************

  Formula = O9Sr3Ti3                                                    

  Number of irreducible atoms/shells =      15


  Total number atoms/shells =      15

  Dimensionality = 3               :  Bulk   



  Cartesian lattice vectors (Angstroms) :

        4.000000    0.000000    0.000000
        0.000000    4.000000    0.000000
        0.000000    0.000000    8.000000

  Cell parameters (Angstroms/Degrees):

  a =       4.0000    alpha =  90.0000
  b =       4.0000    beta  =  90.0000
  c =       8.0000    gamma =  90.0000

  Initial cell volume =         128.000000 Angs**3

  Temperature of configuration =  0.000     K 

  Pressure of configuration =         0.000 GPa 

  Fractional coordinates of asymmetric unit :

--------------------------------------------------------------------------------
   No.  Atomic       x           y          z         Charge      Occupancy
        Label      (Frac)      (Frac)     (Frac)        (e)         (Frac)  
--------------------------------------------------------------------------------
      1 O     c    0.000000    0.500000    0.250000    -2.00000    1.000000    
      2 O     c    0.500000 *  0.500000 *  0.250000 *  -2.00000    1.000000    
      3 O     c    0.000000 *  0.500000 *  0.500000 *  -2.00000    1.000000    
      4 O     c    0.500000 *  0.000000 *  0.500000 *  -2.00000    1.000000    
      5 O     c    0.500000 *  0.500000 *  0.750000 *  -2.00000    1.000000    
      6 O     c    0.000000 *  0.000000 *  0.000000 *  -2.00000    1.000000    
      7 O     c    0.000000 *  0.000000 *  0.500000 *  -2.00000    1.000000    
      8 O     c    0.500000 *  0.000000 *  0.000000 *  -2.00000    1.000000    
      9 O     c    0.000000 *  0.500000 *  0.750000 *  -2.00000    1.000000    
     10 Sr    c    0.750000 *  0.250000 *  0.375000 *   2.00000    1.000000    
     11 Sr    c    0.750000 *  0.750000 *  0.875000 *   2.00000    1.000000    
     12 Sr    c    0.750000 *  0.750000 *  0.125000 *   2.00000    1.000000    
     13 Ti    c    0.750000 *  0.250000 *  0.875000 *   4.00000    1.000000    
     14 Ti    c    0.250000 *  0.250000 *  0.125000 *   4.00000    1.000000    
     15 Ti    c    0.250000 *  0.750000 *  0.125000 *   4.00000    1.000000    
--------------------------------------------------------------------------------



********************************************************************************
*  General input information                                                   *
********************************************************************************

  Species output for all configurations : 

--------------------------------------------------------------------------------
  Species    Type    Atomic    Atomic    Charge       Radii (Angs)     Library
                     Number     Mass       (e)     Cova   Ionic  VDW   Symbol
--------------------------------------------------------------------------------
    O        Core        8      16.00  -2.000000   0.730  0.000  1.360          
    Sr       Core       38      87.62   2.000000   1.120  0.000  1.670          
    Ti       Core       22      47.88   4.000000   1.470  0.000  2.190          
--------------------------------------------------------------------------------


  Lattice summation method               =    Ewald          (3-D)
                                         =    Parry          (2-D)
                                         =    Saunders et al (1-D)
  Accuracy factor for lattice sums       =   12.000


  Time limit =      15.00 seconds

  Maximum range for interatomic potentials =    100000.000000 Angstroms

  General interatomic potentials :

--------------------------------------------------------------------------------
Atom  Types   Potential      Parameter       Value         Units   Cutoffs(Ang)
  1     2                                                            Min /  Max 
--------------------------------------------------------------------------------
O    c Sr   c Buckingham    Buckingham A     1952.3900    eV        0.000 10.000
                            Buckingham rho  0.33685000    Ang       
                            Buckingham C     19.220000    eV*Ang^6  
--------------------------------------------------------------------------------
O    c Ti   c Buckingham    Buckingham A     4590.7279    eV        0.000 10.000
                            Buckingham rho  0.26100000    Ang       
                            Buckingham C     0.0000000    eV*Ang^6  
--------------------------------------------------------------------------------
O    c O    c Buckingham    Buckingham A     1388.7700    eV        0.000 10.000
                            Buckingham rho  0.36262000    Ang       
                            Buckingham C     175.00000    eV*Ang^6  
--------------------------------------------------------------------------------
 Calling ------OPTIONS------

********************************************************************************
*  Output for configuration   1                                                *
********************************************************************************


  Components of energy : 

--------------------------------------------------------------------------------
  Interatomic potentials     =         252.05488473 eV    
  Monopole - monopole (real) =        -121.78183040 eV    
  Monopole - monopole (recip)=        -176.23510212 eV    
  Monopole - monopole (total)=        -298.01693251 eV    
--------------------------------------------------------------------------------
  Total lattice energy       =         -45.96204778 eV    
--------------------------------------------------------------------------------
  Total lattice energy       =           -4434.6350 kJ/(mole unit cells)
--------------------------------------------------------------------------------


  Number of variables =       48

  Maximum number of calculations  =          1000
  Maximum Hessian update interval =            10
  Maximum step size               =   1.000000000
  Maximum parameter tolerance     =   0.000010000
  Maximum function  tolerance     =   0.000010000
  Maximum gradient  tolerance     =   0.001000000
  Maximum gradient  component     =   0.010000000

  Cell parameters to be optimised using strains

  Newton-Raphson optimiser to be used

  BFGS hessian update to be used

  Lower half triangular hessian to be used

  Start of bulk optimisation :

  Cycle:      0 Energy:       -45.962048  Gnorm:     36.523722  CPU:    0.015
  ** Hessian calculated **
 ALPHA BEFORE:    1.0000000000000000     
 XC BEFORE:   0.50000000000000000     
  ** Opt : line minimisation
left   ...       0.00000000     -45.96204778
centre ...       0.25000000     -81.54551253
right  ...       0.50000000    -113.91353225

left   ...       0.00000000     -45.96204778
centre ...       0.25000000     -81.54551253
right  ...       0.50000000    -113.91353225
new    ...       1.50000000    -208.07750629

__s__    ...       1.00000000

left   ...       0.25000000     -81.54551253
centre ...       0.50000000    -113.91353225
right  ...       1.50000000    -208.07750629
new    ...       2.50000000    -244.39449059

__s__    ...       1.00000000

left   ...       0.50000000    -113.91353225
centre ...       1.50000000    -208.07750629
right  ...       2.50000000    -244.39449059
new    ...       2.62781114    -245.63869373

__s__    ...       0.12781114

left   ...       1.50000000    -208.07750629
centre ...       2.50000000    -244.39449059
right  ...       2.62781114    -245.63869373
new    ...       2.77041348    -246.48975918

__s__    ...       0.14260234

left   ...       2.50000000    -244.39449059
centre ...       2.62781114    -245.63869373
right  ...       2.77041348    -246.48975918
new    ...       2.91334482    -247.03209814

__s__    ...       0.14293134

left   ...       2.62781114    -245.63869373
centre ...       2.77041348    -246.48975918
right  ...       2.91334482    -247.03209814
new    ...       3.09109228    -247.86499677

__s__    ...       0.17774745

 ALPHA AFTER:    3.0910922757114716     
 XC AFTER:   0.56044012319571002     
 SANITY CHECK:    3.0910922757114672     
 DIRECTION dim            1  value    1.9552998682900433E-002
 DIRECTION dim            2  value   -6.4461003888180227E-002
 DIRECTION dim            3  value    2.8687792112863049E-002
 DIRECTION dim            4  value    1.0829731761612107E-002
 DIRECTION dim            5  value    5.8415527256474191E-002
 DIRECTION dim            6  value    1.7300832968416946E-002
 DIRECTION dim            7  value   -2.2989286551039906E-003
 DIRECTION dim            8  value   0.11158827619138145     
 DIRECTION dim            9  value    3.2430917121605979E-002
 DIRECTION dim           10  value    4.0208424300584349E-002
 DIRECTION dim           11  value   -7.1848487322064808E-002
 DIRECTION dim           12  value    5.0527339266572789E-002
 DIRECTION dim           13  value   -8.6143195808027696E-004
 DIRECTION dim           14  value   -8.5771996748189739E-003
 DIRECTION dim           15  value    5.5046125025164178E-002
 DIRECTION dim           16  value    1.4971994476462736E-002
 DIRECTION dim           17  value   -2.1336731602671698E-002
 DIRECTION dim           18  value    2.1700030418515280E-002
 DIRECTION dim           19  value    8.7495188093565646E-004
 DIRECTION dim           20  value   -5.0268233348612088E-003
 DIRECTION dim           21  value    3.3004122960615813E-002
 DIRECTION dim           22  value    5.4048757060433918E-002
 DIRECTION dim           23  value   -4.5304869349397425E-002
 DIRECTION dim           24  value    5.6287494704706224E-002
 DIRECTION dim           25  value    9.8104928068628833E-002
 DIRECTION dim           26  value   -1.1169554315671980E-002
 DIRECTION dim           27  value    2.9287519696653875E-002
 DIRECTION dim           28  value    1.9786564148108064E-002
 DIRECTION dim           29  value   -9.1506007325338878E-003
 DIRECTION dim           30  value    2.2650221462053519E-002
 DIRECTION dim           31  value   -3.0789365959835585E-002
 DIRECTION dim           32  value    9.0461193713178897E-003
 DIRECTION dim           33  value    3.8830207152302711E-002
 DIRECTION dim           34  value    4.2248887119716388E-002
 DIRECTION dim           35  value   -6.5927677277980989E-002
 DIRECTION dim           36  value   -5.5447050302961931E-003
 DIRECTION dim           37  value    2.4211674613726392E-002
 DIRECTION dim           38  value   -3.2903478881890137E-002
 DIRECTION dim           39  value    6.2994780080737958E-002
 DIRECTION dim           40  value    5.6805132789370374E-003
 DIRECTION dim           41  value   -1.7809861823293489E-002
 DIRECTION dim           42  value    5.7712325064826174E-002
 DIRECTION dim           43  value    1.0531665577522883E-002
 DIRECTION dim           44  value    7.9203489896523496E-002
 DIRECTION dim           45  value    7.5779107430292231E-002
 DIRECTION dim           46  value   -3.0947920633496228E-002
 DIRECTION dim           47  value   -3.8069799770906378E-003
 DIRECTION dim           48  value   -1.8284804313918074E-002
  Cycle:      1 Energy:      -247.864997  Gnorm:     22.085294  CPU:    0.029
  ** Hessian calculated **
 ALPHA BEFORE:    1.0000000000000000     
 XC BEFORE:   0.56044012319571002     
  ** Opt : line minimisation
left   ...       0.00000000    -247.86499677
centre ...       0.25000000    -254.51768533
right  ...       0.50000000    -260.72894940

left   ...       0.00000000    -247.86499677
centre ...       0.25000000    -254.51768533
right  ...       0.50000000    -260.72894940
new    ...       1.50000000    -282.58157326

__s__    ...       1.00000000

left   ...       0.25000000    -254.51768533
centre ...       0.50000000    -260.72894940
right  ...       1.50000000    -282.58157326
new    ...       2.50000000    -306.86387810

__s__    ...       1.00000000

left   ...       0.50000000    -260.72894940
centre ...       1.50000000    -282.58157326
right  ...       2.50000000    -306.86387810
new    ...       3.50000000    -303.55804348

__s__    ...       1.00000000

left   ...       1.50000000    -282.58157326
centre ...       2.50000000    -306.86387810
right  ...       3.50000000    -303.55804348
new    ...       2.88017189    -311.57404592

__s__    ...      -0.61982811

left   ...       2.50000000    -306.86387810
centre ...       2.88017189    -311.57404592
right  ...       3.50000000    -303.55804348
new    ...       2.93472457    -311.79903538

__s__    ...       0.05455268

 ALPHA AFTER:    2.9347245664542561     
 XC AFTER:   0.52611561876887880     
 SANITY CHECK:    2.9347245664542552     
 DIRECTION dim            1  value   -1.1695988379687095E-002
 DIRECTION dim            2  value   -2.1809862532662712E-002
 DIRECTION dim            3  value   -1.4929870581844496E-002
 DIRECTION dim            4  value  -0.15816473587445209     
 DIRECTION dim            5  value   -7.6207931196693255E-003
 DIRECTION dim            6  value   -2.8478120576265944E-002
 DIRECTION dim            7  value  -0.16768503008685726     
 DIRECTION dim            8  value   -6.5757958397075128E-002
 DIRECTION dim            9  value   -9.8498164142111653E-004
 DIRECTION dim           10  value   -9.1665217251285333E-002
 DIRECTION dim           11  value    7.1083651891183592E-003
 DIRECTION dim           12  value   -2.8133200293554525E-002
 DIRECTION dim           13  value   -4.0667022771622388E-002
 DIRECTION dim           14  value    1.8301940522614999E-002
 DIRECTION dim           15  value   -1.5431421976239477E-002
 DIRECTION dim           16  value  -0.20673375059230609     
 DIRECTION dim           17  value   -1.2900014764852124E-002
 DIRECTION dim           18  value   -2.9296434382000587E-002
 DIRECTION dim           19  value   -4.3804013593334232E-002
 DIRECTION dim           20  value    2.0902320412857923E-002
 DIRECTION dim           21  value   -3.3162924204804462E-003
 DIRECTION dim           22  value   -8.6417686765137988E-002
 DIRECTION dim           23  value   0.10119217412667579     
 DIRECTION dim           24  value   -1.3798196197885686E-004
 DIRECTION dim           25  value   -5.8835696908668592E-002
 DIRECTION dim           26  value    1.9938519408894136E-002
 DIRECTION dim           27  value   -1.3266724799348662E-002
 DIRECTION dim           28  value   0.13103618452989771     
 DIRECTION dim           29  value    8.5955565931246231E-002
 DIRECTION dim           30  value   -6.8925204986533930E-003
 DIRECTION dim           31  value   -7.5038358309237998E-003
 DIRECTION dim           32  value    1.8285597811449369E-003
 DIRECTION dim           33  value   -1.6190122467496102E-002
 DIRECTION dim           34  value    3.4150573344303138E-002
 DIRECTION dim           35  value    9.2331135213996579E-002
 DIRECTION dim           36  value   -2.6248941241309855E-002
 DIRECTION dim           37  value   -1.6945463675628492E-002
 DIRECTION dim           38  value   -6.9600818395116498E-004
 DIRECTION dim           39  value   -5.4346261009600508E-003
 DIRECTION dim           40  value   -1.2519292439953722E-002
 DIRECTION dim           41  value   -1.7677160691633994E-002
 DIRECTION dim           42  value   -9.2694253575523553E-003
 DIRECTION dim           43  value    2.0315338462221313E-003
 DIRECTION dim           44  value    2.7718253750722500E-002
 DIRECTION dim           45  value   -2.0264574383624043E-002
 DIRECTION dim           46  value    1.9891208811842033E-003
 DIRECTION dim           47  value    8.0541839483935951E-002
 DIRECTION dim           48  value   0.13023088308781575     
  Cycle:      2 Energy:      -311.799035  Gnorm:     20.272927  CPU:    0.043
  ** Hessian calculated **
 ALPHA BEFORE:    1.0000000000000000     
 XC BEFORE:   0.52611561876887880     
  ** Opt : line minimisation
left   ...       0.00000000    -311.79903538
centre ...       0.25000000    -342.30685764
right  ...       0.50000000    -352.31315302

left   ...       0.00000000    -311.79903538
centre ...       0.25000000    -342.30685764
right  ...       0.50000000    -352.31315302
new    ...       0.49701890    -352.23778181

__s__    ...      -0.00298110

 ALPHA AFTER:   0.50000000000000000     
 XC AFTER:   0.54403883234542649     
 SANITY CHECK:   0.49999999999999883     
 DIRECTION dim            1  value    3.5846427153095467E-002
 DIRECTION dim            2  value    7.3819059615229915E-002
 DIRECTION dim            3  value  -0.20354921561470710     
 DIRECTION dim            4  value   -9.6996326800296309E-002
 DIRECTION dim            5  value   -1.6637669678600715E-002
 DIRECTION dim            6  value   -2.6119599553702983E-002
 DIRECTION dim            7  value   -2.1485613504880575E-002
 DIRECTION dim            8  value   0.12023510506232916     
 DIRECTION dim            9  value    2.7004531114080452E-002
 DIRECTION dim           10  value    2.9655645825744006E-002
 DIRECTION dim           11  value   -6.3064330295675699E-003
 DIRECTION dim           12  value   -7.0677473719465466E-003
 DIRECTION dim           13  value    3.9636319302797908E-002
 DIRECTION dim           14  value   -7.6863828710171745E-003
 DIRECTION dim           15  value    8.6650171326015768E-002
 DIRECTION dim           16  value    5.7494989897242298E-002
 DIRECTION dim           17  value    1.6428526029277368E-002
 DIRECTION dim           18  value   -2.9590042193221956E-002
 DIRECTION dim           19  value   -2.6469398191430217E-003
 DIRECTION dim           20  value    1.8594065367584647E-002
 DIRECTION dim           21  value    3.0186444332746143E-002
 DIRECTION dim           22  value  -0.14885084002667945     
 DIRECTION dim           23  value   -7.6293270342089894E-002
 DIRECTION dim           24  value   -5.2390817301767791E-002
 DIRECTION dim           25  value  -0.13393531601322062     
 DIRECTION dim           26  value    7.1071139514246335E-003
 DIRECTION dim           27  value    2.9225420038050107E-002
 DIRECTION dim           28  value   -7.5960652708609751E-003
 DIRECTION dim           29  value   -6.6688247742754600E-002
 DIRECTION dim           30  value   -1.2320385623123693E-002
 DIRECTION dim           31  value    4.0429063969230385E-002
 DIRECTION dim           32  value   -1.8278086656563702E-002
 DIRECTION dim           33  value  -0.14642520857138236     
 DIRECTION dim           34  value   -1.5512741441064350E-002
 DIRECTION dim           35  value    7.0080530418102555E-002
 DIRECTION dim           36  value   -1.3576593715051925E-002
 DIRECTION dim           37  value   -3.3542793007882855E-002
 DIRECTION dim           38  value   -4.0742588341892122E-002
 DIRECTION dim           39  value    1.9946748907019377E-002
 DIRECTION dim           40  value    2.9389583983244465E-002
 DIRECTION dim           41  value    1.1748212759064687E-002
 DIRECTION dim           42  value   -6.7842282455905803E-002
 DIRECTION dim           43  value   0.19886924432198741     
 DIRECTION dim           44  value  -0.10627174681290227     
 DIRECTION dim           45  value   -4.2454265538940147E-002
 DIRECTION dim           46  value   0.10719280365998478     
 DIRECTION dim           47  value  -0.34912485212360284     
 DIRECTION dim           48  value   0.28407003234418382     
  Cycle:      3 Energy:      -352.313153  Gnorm:     14.850223  CPU:    0.050
  ** Hessian calculated **
 ALPHA BEFORE:    1.0000000000000000     
 XC BEFORE:   0.54403883234542649     
  ** Opt : line minimisation
left   ...       0.00000000    -352.31315302
centre ...       0.25000000    -328.48758070
right  ...      -0.25000000    -318.12236381

left   ...      -0.25000000    -318.12236381
centre ...       0.00000000    -352.31315302
right  ...       0.25000000    -328.48758070
new    ...       0.02233253    -348.93441372

__s__    ...       0.27233253

left   ...      -0.25000000    -318.12236381
centre ...       0.00000000    -352.31315302
right  ...       0.02233253    -348.93441372
new    ...      -0.06035089    -360.28915582

__s__    ...      -0.08268342

left   ...      -0.25000000    -318.12236381
centre ...      -0.06035089    -360.28915582
right  ...       0.00000000    -352.31315302
new    ...      -0.07677625    -361.25502704

__s__    ...      -0.01642537

left   ...      -0.25000000    -318.12236381
centre ...      -0.07677625    -361.25502704
right  ...      -0.06035089    -360.28915582
new    ...      -0.08667913    -361.42411081

__s__    ...      -0.00990287

 ALPHA AFTER:    8.6679125936381690E-002
 XC AFTER:   0.54509764031085284     
 SANITY CHECK:    8.6679125936375334E-002
 DIRECTION dim            1  value    1.2215258910242549E-002
 DIRECTION dim            2  value   -7.2660803373258365E-002
 DIRECTION dim            3  value   0.99596106114570349     
 DIRECTION dim            4  value   -6.7622729467458464E-003
 DIRECTION dim            5  value    3.4441470385296585E-003
 DIRECTION dim            6  value    4.5702579190481487E-003
 DIRECTION dim            7  value   -7.3697079510878167E-003
 DIRECTION dim            8  value    1.4076050371195383E-003
 DIRECTION dim            9  value   -2.0239946174173641E-003
 DIRECTION dim           10  value    6.7512210824061689E-004
 DIRECTION dim           11  value   -2.2243478973287960E-004
 DIRECTION dim           12  value    1.9800119075890333E-003
 DIRECTION dim           13  value   -3.2285373028506537E-002
 DIRECTION dim           14  value    1.8566184157143548E-002
 DIRECTION dim           15  value    3.8317650163374274E-002
 DIRECTION dim           16  value    2.8325900829220853E-002
 DIRECTION dim           17  value   -2.9489138228658801E-003
 DIRECTION dim           18  value    6.1310825694772626E-003
 DIRECTION dim           19  value    2.3210152968667616E-002
 DIRECTION dim           20  value    1.3975624584358984E-003
 DIRECTION dim           21  value   -2.6162196552835908E-003
 DIRECTION dim           22  value    1.1091275095422005E-002
 DIRECTION dim           23  value   -4.3362559322045435E-004
 DIRECTION dim           24  value    1.5536760103412289E-004
 DIRECTION dim           25  value    2.5007096530971312E-002
 DIRECTION dim           26  value    2.5351725257335797E-002
 DIRECTION dim           27  value    8.4607595566585836E-004
 DIRECTION dim           28  value    1.9221068627173075E-002
 DIRECTION dim           29  value    1.6246090064928654E-002
 DIRECTION dim           30  value    1.8707998327361511E-003
 DIRECTION dim           31  value   -1.5017365386466556E-002
 DIRECTION dim           32  value    1.4680703374026270E-002
 DIRECTION dim           33  value    2.2188502459931848E-002
 DIRECTION dim           34  value   -1.2437963084527539E-002
 DIRECTION dim           35  value   -5.5413878651936702E-003
 DIRECTION dim           36  value    5.8738855477726720E-004
 DIRECTION dim           37  value   -3.2485466071923930E-002
 DIRECTION dim           38  value   -6.5660349853100246E-003
 DIRECTION dim           39  value    3.1873833020606259E-003
 DIRECTION dim           40  value   -2.2009021533302910E-003
 DIRECTION dim           41  value    1.8726231393918263E-003
 DIRECTION dim           42  value    8.9276552330310368E-003
 DIRECTION dim           43  value   -3.5434159090999777E-002
 DIRECTION dim           44  value    5.2754703229155597E-003
 DIRECTION dim           45  value    7.3578334968769856E-004
 DIRECTION dim           46  value   -2.3033209106229975E-002
 DIRECTION dim           47  value    3.0640118458371356E-002
 DIRECTION dim           48  value    1.4663686957391118E-002
  Cycle:      4 Energy:      -361.424111  Gnorm:     14.184619  CPU:    0.059
  ** Hessian calculated **
 ALPHA BEFORE:    1.0000000000000000     
 XC BEFORE:   0.54509764031085284     
  ** Opt : line minimisation
left   ...       0.00000000    -361.42411081
centre ...       0.25000000    -339.00357477
right  ...      -0.25000000    -331.35381267

left   ...      -0.25000000    -331.35381267
centre ...       0.00000000    -361.42411081
right  ...       0.25000000    -339.00357477
new    ...       0.01821690    -363.52964886

__s__    ...       0.26821690

left   ...       0.00000000    -361.42411081
centre ...       0.01821690    -363.52964886
right  ...       0.25000000    -339.00357477
new    ...       0.07436561    -369.24176584

__s__    ...       0.05614871

left   ...       0.01821690    -363.52964886
centre ...       0.07436561    -369.24176584
right  ...       0.25000000    -339.00357477
new    ...       0.08933609    -370.36753946

__s__    ...       0.01497047

left   ...       0.07436561    -369.24176584
centre ...       0.08933609    -370.36753946
right  ...       0.25000000    -339.00357477
new    ...       0.10627196    -371.29491957

__s__    ...       0.01693587

left   ...       0.08933609    -370.36753946
centre ...       0.10627196    -371.29491957
right  ...       0.25000000    -339.00357477
new    ...       0.11354634    -371.55139681

__s__    ...       0.00727438

 ALPHA AFTER:   0.11354633616510876     
 XC AFTER:   0.53088194204592720     
 SANITY CHECK:   0.11354633616510941     
 DIRECTION dim            1  value  -0.12519733128380628     
 DIRECTION dim            2  value   0.48051389030860203     
 DIRECTION dim            3  value   -2.5324372201895259E-002
 DIRECTION dim            4  value    6.1828213564458084E-002
 DIRECTION dim            5  value   0.37183414474087828     
 DIRECTION dim            6  value  -0.13207587386702405     
 DIRECTION dim            7  value   -6.0088887233042829E-002
 DIRECTION dim            8  value   0.40952329270493049     
 DIRECTION dim            9  value   0.14713371097068725     
 DIRECTION dim           10  value   -5.1820981390522984E-002
 DIRECTION dim           11  value   0.50228066260347770     
 DIRECTION dim           12  value   0.14757004498313003     
 DIRECTION dim           13  value  -0.15462752888591716     
 DIRECTION dim           14  value    2.4373985121493871E-002
 DIRECTION dim           15  value   -5.8414863324242873E-002
 DIRECTION dim           16  value    3.8899283018031500E-002
 DIRECTION dim           17  value   0.34291795090963539     
 DIRECTION dim           18  value   -8.2624486809816197E-002
 DIRECTION dim           19  value   -1.0832554763817091E-002
 DIRECTION dim           20  value   0.10114473105942656     
 DIRECTION dim           21  value    5.0668571290962014E-002
 DIRECTION dim           22  value  -0.22969508240084788     
 DIRECTION dim           23  value   0.45602278576235222     
 DIRECTION dim           24  value    1.1705557054742168E-002
 DIRECTION dim           25  value    7.9238301685142544E-003
 DIRECTION dim           26  value   0.13568280783264539     
 DIRECTION dim           27  value    7.0654839503119446E-002
 DIRECTION dim           28  value   0.19786488431862298     
 DIRECTION dim           29  value    8.4734479591281192E-002
 DIRECTION dim           30  value   -3.3975837991843713E-002
 DIRECTION dim           31  value   -3.9970837027888000E-002
 DIRECTION dim           32  value    2.1366682170748736E-002
 DIRECTION dim           33  value    7.3978583029842143E-002
 DIRECTION dim           34  value    8.2041605335345436E-002
 DIRECTION dim           35  value   0.37645197557066934     
 DIRECTION dim           36  value   0.12650410092017861     
 DIRECTION dim           37  value   0.25930096450667478     
 DIRECTION dim           38  value  -0.14949182490967455     
 DIRECTION dim           39  value    3.7949724874861021E-002
 DIRECTION dim           40  value   0.39910900060176335     
 DIRECTION dim           41  value  -0.43166248437827170     
 DIRECTION dim           42  value  -0.10136091584473708     
 DIRECTION dim           43  value   -8.3885592513036622E-003
 DIRECTION dim           44  value   0.20226040200970519     
 DIRECTION dim           45  value    6.0955554076384463E-002
 DIRECTION dim           46  value   -3.4601006161691185E-002
 DIRECTION dim           47  value   -3.4386773051802190E-002
 DIRECTION dim           48  value    5.7608713676291029E-002
  Cycle:      5 Energy:      -371.551397  Gnorm:     12.825774  CPU:    0.069
  ** Hessian calculated **
 ALPHA BEFORE:    1.0000000000000000     
 XC BEFORE:   0.53088194204592720     
  ** Opt : line minimisation
left   ...       0.00000000    -371.55139681
centre ...       0.25000000    -384.96645217
right  ...       0.50000000    -375.22522236

left   ...       0.00000000    -371.55139681
centre ...       0.25000000    -384.96645217
right  ...       0.50000000    -375.22522236
new    ...       0.26983169    -384.95773595

__s__    ...      -0.23016831

left   ...       0.00000000    -371.55139681
centre ...       0.25000000    -384.96645217
right  ...       0.26983169    -384.95773595
new    ...       0.25881978    -384.98655012

__s__    ...      -0.01101191

 ALPHA AFTER:   0.25881977817213114     
 XC AFTER:   0.48538578630573803     
 SANITY CHECK:   0.25881977817213087     
 DIRECTION dim            1  value  -0.17578314942350143     
 DIRECTION dim            2  value   0.20223815176161858     
 DIRECTION dim            3  value   0.22698315571797512     
 DIRECTION dim            4  value  -0.24803169746965970     
 DIRECTION dim            5  value   0.29126225019948443     
 DIRECTION dim            6  value    2.6240378653398996E-003
 DIRECTION dim            7  value  -0.28775225639746999     
 DIRECTION dim            8  value    1.1005491025329197     
 DIRECTION dim            9  value   0.18440679054443695     
 DIRECTION dim           10  value  -0.10544699623359717     
 DIRECTION dim           11  value   0.51881943203982872     
 DIRECTION dim           12  value   0.22137006135657855     
 DIRECTION dim           13  value  -0.13458694328591836     
 DIRECTION dim           14  value   0.15506347360664022     
 DIRECTION dim           15  value   0.18472661086593639     
 DIRECTION dim           16  value  -0.30056142949699011     
 DIRECTION dim           17  value   0.25262924694726346     
 DIRECTION dim           18  value    4.1803678956071372E-002
 DIRECTION dim           19  value    6.3976393483876209E-003
 DIRECTION dim           20  value    6.4948133706608624E-002
 DIRECTION dim           21  value   0.13690268242008080     
 DIRECTION dim           22  value  -0.16129084308446495     
 DIRECTION dim           23  value   0.52120518245558189     
 DIRECTION dim           24  value   0.16732958897622133     
 DIRECTION dim           25  value   0.24841062393405616     
 DIRECTION dim           26  value   0.33819236298483807     
 DIRECTION dim           27  value    9.1531230797613800E-002
 DIRECTION dim           28  value   0.71264360579795705     
 DIRECTION dim           29  value   0.55103442760508770     
 DIRECTION dim           30  value   -1.3325805289847351E-002
 DIRECTION dim           31  value    5.0284252437245658E-002
 DIRECTION dim           32  value    9.1483368602398890E-002
 DIRECTION dim           33  value   0.20567055063098111     
 DIRECTION dim           34  value    2.7961110365353550E-002
 DIRECTION dim           35  value   0.76994114079685572     
 DIRECTION dim           36  value   0.12598799221684806     
 DIRECTION dim           37  value   0.18392034432676654     
 DIRECTION dim           38  value    8.4642043350291477E-002
 DIRECTION dim           39  value    6.9668097054418308E-003
 DIRECTION dim           40  value  -0.10120402357878869     
 DIRECTION dim           41  value    7.6989428795491963E-002
 DIRECTION dim           42  value    2.2076817957367909E-002
 DIRECTION dim           43  value   0.10529818088794307     
 DIRECTION dim           44  value   0.25306041669346357     
 DIRECTION dim           45  value   0.39121029803146357     
 DIRECTION dim           46  value   0.10367961891509267     
 DIRECTION dim           47  value   0.10393373214364006     
 DIRECTION dim           48  value   0.18134694570408436     
  Cycle:      6 Energy:      -384.986550  Gnorm:     11.462755  CPU:    0.076
  ** Hessian calculated **
 ALPHA BEFORE:    1.0000000000000000     
 XC BEFORE:   0.48538578630573803     
  ** Opt : line minimisation
left   ...       0.00000000    -384.98655012
centre ...       0.16584240    -390.18497763
right  ...       0.33168479    -354.57488012

left   ...       0.00000000    -384.98655012
centre ...       0.16584240    -390.18497763
right  ...       0.33168479    -354.57488012
new    ...       0.16584240    -390.18497763

__s__    ...      -0.16584240

 ALPHA AFTER:   0.16584239574649823     
 XC AFTER:   0.48059032475312630     
 SANITY CHECK:   0.16584239574649887     
 DIRECTION dim            1  value   -2.8915775914995324E-002
 DIRECTION dim            2  value    5.2907116317398818E-003
 DIRECTION dim            3  value   -5.6730102962503619E-003
 DIRECTION dim            4  value    6.5258781359657791E-002
 DIRECTION dim            5  value   -1.7042294038982123E-002
 DIRECTION dim            6  value   -1.7234209572259025E-002
 DIRECTION dim            7  value   -3.1882544858608574E-003
 DIRECTION dim            8  value   -5.8233007803674484E-002
 DIRECTION dim            9  value    1.9854649105447088E-003
 DIRECTION dim           10  value    2.3389894715521247E-003
 DIRECTION dim           11  value    1.9943851626968882E-002
 DIRECTION dim           12  value   -1.9643005502595168E-003
 DIRECTION dim           13  value    9.6644835297132817E-002
 DIRECTION dim           14  value   -2.0956421811017360E-002
 DIRECTION dim           15  value    1.7455215074904256E-002
 DIRECTION dim           16  value  -0.14911360556524100     
 DIRECTION dim           17  value    1.5245979279123353E-002
 DIRECTION dim           18  value   -1.4483346812643147E-002
 DIRECTION dim           19  value   -9.1435629225849441E-002
 DIRECTION dim           20  value    4.3164204518355197E-002
 DIRECTION dim           21  value   -1.1707905616496688E-002
 DIRECTION dim           22  value    3.3588865552241276E-002
 DIRECTION dim           23  value   -4.1135763287200477E-002
 DIRECTION dim           24  value    1.8664003470047984E-003
 DIRECTION dim           25  value   -9.6066959147822609E-002
 DIRECTION dim           26  value    1.4280762325943894E-002
 DIRECTION dim           27  value    2.4978701534122232E-002
 DIRECTION dim           28  value  -0.10300391207079793     
 DIRECTION dim           29  value   -2.4365902005725323E-003
 DIRECTION dim           30  value   -1.6261095998105449E-002
 DIRECTION dim           31  value    4.3838160213741269E-002
 DIRECTION dim           32  value   -4.5567132640660681E-002
 DIRECTION dim           33  value    2.4119284951203199     
 DIRECTION dim           34  value    1.8454575928482760E-002
 DIRECTION dim           35  value    2.3862096923443005E-002
 DIRECTION dim           36  value   -1.5888902852720646E-003
 DIRECTION dim           37  value    6.4801756752189896E-002
 DIRECTION dim           38  value    1.0817789057781092E-002
 DIRECTION dim           39  value    7.7559817344239144E-003
 DIRECTION dim           40  value    8.8937091653576369E-003
 DIRECTION dim           41  value    6.8861221328270928E-003
 DIRECTION dim           42  value    3.6428862283698404E-002
 DIRECTION dim           43  value   0.16425488764175594     
 DIRECTION dim           44  value   -7.7338095513906566E-002
 DIRECTION dim           45  value    8.5460200933301315E-003
 DIRECTION dim           46  value    6.6612838431704804E-002
 DIRECTION dim           47  value  -0.12617447768197890     
 DIRECTION dim           48  value   -8.1850161906715041E-002
  Cycle:      7 Energy:      -390.184978  Gnorm:     13.302993  CPU:    0.082
  ** Hessian calculated **
 ALPHA BEFORE:    1.0000000000000000     
 XC BEFORE:   0.48059032475312630     
  ** Opt : line minimisation
left   ...       0.00000000    -390.18497763
centre ...       0.25000000    -409.58524706
right  ...       0.50000000    -409.48631651

left   ...       0.00000000    -390.18497763
centre ...       0.25000000    -409.58524706
right  ...       0.50000000    -409.48631651
new    ...       0.37373161    -412.42546688

__s__    ...      -0.12626839

left   ...       0.25000000    -409.58524706
centre ...       0.37373161    -412.42546688
right  ...       0.50000000    -409.48631651
new    ...       0.37393006    -412.42606297

__s__    ...       0.00019845

 ALPHA AFTER:   0.37393005699257231     
 XC AFTER:   0.47598438173278124     
 SANITY CHECK:   0.37393005699257037     
 DIRECTION dim            1  value   -1.2317659236568339E-002
 DIRECTION dim            2  value    2.8218227182940214E-003
 DIRECTION dim            3  value    2.8334455641611349E-002
 DIRECTION dim            4  value   -2.8933755175064781E-002
 DIRECTION dim            5  value   -1.6984365256554092E-002
 DIRECTION dim            6  value    2.0940400769609638E-003
 DIRECTION dim            7  value    7.8196397217163469E-002
 DIRECTION dim            8  value   -7.3509589466669675E-002
 DIRECTION dim            9  value    8.5912410758927828E-003
 DIRECTION dim           10  value   -2.8364122428738200E-003
 DIRECTION dim           11  value    1.9969922600642412E-002
 DIRECTION dim           12  value   -6.7683734549797772E-002
 DIRECTION dim           13  value    9.5695296343303510E-002
 DIRECTION dim           14  value  -0.12943082403834147     
 DIRECTION dim           15  value   0.14428253227216054     
 DIRECTION dim           16  value   -3.7990042158767008E-002
 DIRECTION dim           17  value    1.5972090994979909E-002
 DIRECTION dim           18  value   -7.3323576592728898E-004
 DIRECTION dim           19  value   -2.3938809985999895E-002
 DIRECTION dim           20  value  -0.44121919198029858     
 DIRECTION dim           21  value    1.7225911597569714E-003
 DIRECTION dim           22  value    2.1023474398509934E-002
 DIRECTION dim           23  value   -2.6921894768170935E-002
 DIRECTION dim           24  value   -3.2462623026494331E-002
 DIRECTION dim           25  value   -7.6776563798469533E-002
 DIRECTION dim           26  value   -7.8201434071950487E-002
 DIRECTION dim           27  value   -3.3886310554270320E-002
 DIRECTION dim           28  value   -6.4284240033833207E-002
 DIRECTION dim           29  value   -1.8531474686255080E-002
 DIRECTION dim           30  value   0.19732331258657140     
 DIRECTION dim           31  value    6.5378908819304681E-003
 DIRECTION dim           32  value   0.14211509112432369     
 DIRECTION dim           33  value   -3.3431973708012200E-003
 DIRECTION dim           34  value    2.4838904964048270E-002
 DIRECTION dim           35  value    1.5230509233824767E-002
 DIRECTION dim           36  value    1.8299211387408788E-002
 DIRECTION dim           37  value    4.2642044324913961E-002
 DIRECTION dim           38  value   -1.1749047179578873E-002
 DIRECTION dim           39  value   -1.7898575099707437E-002
 DIRECTION dim           40  value    1.2577520121005045E-002
 DIRECTION dim           41  value    3.2451730916589185E-002
 DIRECTION dim           42  value   -2.6606928634644259E-002
 DIRECTION dim           43  value   0.10233922821460739     
 DIRECTION dim           44  value   -9.8757474178419583E-002
 DIRECTION dim           45  value    3.7917194181724873E-002
 DIRECTION dim           46  value   -1.9212523421895812E-002
 DIRECTION dim           47  value    2.0915581150954259E-002
 DIRECTION dim           48  value   -4.1122459040788456E-002
  Cycle:      8 Energy:      -412.426063  Gnorm:      8.082762  CPU:    0.089
  ** Hessian calculated **
 ALPHA BEFORE:    1.0000000000000000     
 XC BEFORE:   0.47598438173278124     
  ** Opt : line minimisation
left   ...       0.00000000    -412.42606297
centre ...       0.25000000    -416.53098544
right  ...       0.50000000    -415.54981074

left   ...       0.00000000    -412.42606297
centre ...       0.25000000    -416.53098544
right  ...       0.50000000    -415.54981074
new    ...       0.32677173    -416.81093499

__s__    ...      -0.17322827

left   ...       0.25000000    -416.53098544
centre ...       0.32677173    -416.81093499
right  ...       0.50000000    -415.54981074
new    ...       0.33010175    -416.81195228

__s__    ...       0.00333002

 ALPHA AFTER:   0.33010175322735996     
 XC AFTER:   0.46721010753537418     
 SANITY CHECK:   0.33010175322736229     
 DIRECTION dim            1  value   -2.6580513770745273E-002
 DIRECTION dim            2  value    1.1270280236963344E-003
 DIRECTION dim            3  value   -3.6391672918029062E-002
 DIRECTION dim            4  value   -1.9106583966910388E-002
 DIRECTION dim            5  value   -1.7129282652809739E-002
 DIRECTION dim            6  value   -1.0229847450921271E-003
 DIRECTION dim            7  value    1.1035796867682373E-002
 DIRECTION dim            8  value   -1.9678558147393041E-002
 DIRECTION dim            9  value    6.6326798869543830E-003
 DIRECTION dim           10  value    1.0228788527940309E-002
 DIRECTION dim           11  value   -6.3743979342111567E-002
 DIRECTION dim           12  value    8.2788035020158711E-003
 DIRECTION dim           13  value    9.9707748783306974E-002
 DIRECTION dim           14  value   -4.4800149276558079E-002
 DIRECTION dim           15  value   -3.3920443064937864E-003
 DIRECTION dim           16  value   -3.1372974734726368E-002
 DIRECTION dim           17  value    1.3646987880400573E-002
 DIRECTION dim           18  value   -5.4111630949707171E-003
 DIRECTION dim           19  value   -4.5469590898918810E-003
 DIRECTION dim           20  value   -7.2450488383988890E-002
 DIRECTION dim           21  value    2.2575804451067411E-002
 DIRECTION dim           22  value   -2.4709616427833606E-002
 DIRECTION dim           23  value    7.3866928418376054E-002
 DIRECTION dim           24  value    6.8984443012307124E-003
 DIRECTION dim           25  value   -3.6825865731152539E-003
 DIRECTION dim           26  value   -1.7498829328346188E-002
 DIRECTION dim           27  value   -1.9945766497583592E-003
 DIRECTION dim           28  value    3.5541748092360069E-002
 DIRECTION dim           29  value    4.4711566787922097E-002
 DIRECTION dim           30  value   -1.2514738312341371E-002
 DIRECTION dim           31  value    3.6448947423534529E-002
 DIRECTION dim           32  value    7.1679671960313079E-002
 DIRECTION dim           33  value    2.7044149830911068E-003
 DIRECTION dim           34  value    8.3531062367185795E-003
 DIRECTION dim           35  value   -3.5664234336546391E-002
 DIRECTION dim           36  value   -7.0315532307554229E-003
 DIRECTION dim           37  value   -4.9415484518070645E-003
 DIRECTION dim           38  value   -3.0283286073914017E-002
 DIRECTION dim           39  value    8.3114436406270260E-006
 DIRECTION dim           40  value    4.8688517072450772E-003
 DIRECTION dim           41  value    4.1139750103423148E-002
 DIRECTION dim           42  value    2.1561538828095344E-002
 DIRECTION dim           43  value    3.3100100383548138E-002
 DIRECTION dim           44  value  -0.14534101438394412     
 DIRECTION dim           45  value    6.2649679271613065E-002
 DIRECTION dim           46  value    7.6222848524215977E-003
 DIRECTION dim           47  value   -4.3850882003710845E-002
 DIRECTION dim           48  value    3.0696652929192270E-002
  Cycle:      9 Energy:      -416.811952  Gnorm:      7.078938  CPU:    0.096
  ** Hessian calculated **
 ALPHA BEFORE:    1.0000000000000000     
 XC BEFORE:   0.46721010753537418     
  ** Opt : line minimisation
left   ...       0.00000000    -416.81195228
centre ...       0.25000000    -415.40489274
right  ...      -0.25000000    -417.95892809

left   ...      -0.25000000    -417.95892809
centre ...       0.00000000    -416.81195228
right  ...       0.25000000    -415.40489274
new    ...      -1.22750634    -408.88099188

__s__    ...      -0.97750634

left   ...      -1.22750634    -408.88099188
centre ...      -0.25000000    -417.95892809
right  ...       0.00000000    -416.81195228
new    ...      -0.32794732    -418.06809933

__s__    ...       0.89955901

left   ...      -1.22750634    -408.88099188
centre ...      -0.32794732    -418.06809933
right  ...      -0.25000000    -417.95892809
new    ...      -0.34791694    -418.07385182

__s__    ...      -0.01996962

 ALPHA AFTER:   0.34791694353669406     
 XC AFTER:   0.46904165364534062     
 SANITY CHECK:   0.34791694353669755     
 DIRECTION dim            1  value    5.2643199590917721E-003
 DIRECTION dim            2  value    2.3437978570344550E-003
 DIRECTION dim            3  value    1.2161878559616373E-002
 DIRECTION dim            4  value    7.7788653878532003E-003
 DIRECTION dim            5  value    1.5974244218974375E-002
 DIRECTION dim            6  value   -1.1680324304641727E-002
 DIRECTION dim            7  value    5.6878722185443892E-003
 DIRECTION dim            8  value    2.0893957485824823E-002
 DIRECTION dim            9  value   -2.1488171948445952E-003
 DIRECTION dim           10  value   -5.4410289498633595E-003
 DIRECTION dim           11  value   -1.0108437889721957E-002
 DIRECTION dim           12  value    7.6774871246204045E-003
 DIRECTION dim           13  value   -3.1840713907446951E-002
 DIRECTION dim           14  value    1.7205677374653897E-002
 DIRECTION dim           15  value   -1.9896071132275175E-002
 DIRECTION dim           16  value    1.7605345910102089E-002
 DIRECTION dim           17  value   -1.2716681954878257E-002
 DIRECTION dim           18  value    9.6034647100525709E-004
 DIRECTION dim           19  value   -2.2859351692200207E-002
 DIRECTION dim           20  value   -5.6495565525417684E-003
 DIRECTION dim           21  value   -5.9003143876562546E-003
 DIRECTION dim           22  value   -1.7102417126281355E-002
 DIRECTION dim           23  value   -2.7010025043019270E-004
 DIRECTION dim           24  value    1.2149450038206992E-002
 DIRECTION dim           25  value    2.8332281433700850E-003
 DIRECTION dim           26  value    9.2421207424946521E-003
 DIRECTION dim           27  value    9.9891031857668629E-003
 DIRECTION dim           28  value    2.8452903818286236E-002
 DIRECTION dim           29  value    9.8351520005141128E-003
 DIRECTION dim           30  value   -1.2563242761937099E-002
 DIRECTION dim           31  value   -1.2713379092519433E-002
 DIRECTION dim           32  value   -4.7474587189399377E-002
 DIRECTION dim           33  value    5.9742218096143409E-003
 DIRECTION dim           34  value   -7.3151310663693240E-004
 DIRECTION dim           35  value   -3.7300019410049117E-003
 DIRECTION dim           36  value   -2.6186248704958984E-003
 DIRECTION dim           37  value    1.9227965182753139E-002
 DIRECTION dim           38  value    2.1140725596635518E-002
 DIRECTION dim           39  value    2.9195719431060040E-003
 DIRECTION dim           40  value    2.4338983962445649E-002
 DIRECTION dim           41  value   -1.4651982388426575E-002
 DIRECTION dim           42  value   -6.4593247595319736E-003
 DIRECTION dim           43  value   -2.5980497214956703E-002
 DIRECTION dim           44  value   0.39159650863798140     
 DIRECTION dim           45  value   -4.0961347466870239E-002
 DIRECTION dim           46  value    4.0346991602716896E-002
 DIRECTION dim           47  value    1.9448106011463025E-002
 DIRECTION dim           48  value   -6.4295165219407271E-002
  Cycle:     10 Energy:      -418.073852  Gnorm:      5.110154  CPU:    0.104
  ** Hessian calculated **
 ALPHA BEFORE:    1.0000000000000000     
 XC BEFORE:   0.46904165364534062     
  ** Opt : line minimisation
left   ...       0.00000000    -418.07385182
centre ...       0.25000000    -414.99007953
right  ...      -0.25000000    -396.42087681

left   ...      -0.25000000    -396.42087681
centre ...       0.00000000    -418.07385182
right  ...       0.25000000    -414.99007953
new    ...       0.09383410    -424.13732314

__s__    ...       0.34383410

left   ...       0.00000000    -418.07385182
centre ...       0.09383410    -424.13732314
right  ...       0.25000000    -414.99007953
new    ...       0.11248397    -425.41574120

__s__    ...       0.01864988

left   ...       0.09383410    -424.13732314
centre ...       0.11248397    -425.41574120
right  ...       0.25000000    -414.99007953
new    ...       0.14023554    -426.67914100

__s__    ...       0.02775156

left   ...       0.11248397    -425.41574120
centre ...       0.14023554    -426.67914100
right  ...       0.25000000    -414.99007953
new    ...       0.14695101    -426.80907694

__s__    ...       0.00671547

 ALPHA AFTER:   0.14695101241734065     
 XC AFTER:   0.46661561007844260     
 SANITY CHECK:   0.14695101241734046     
 DIRECTION dim            1  value   -1.6509199405908552E-002
 DIRECTION dim            2  value   -3.2323941080039890E-003
 DIRECTION dim            3  value   -1.7619221146068856E-002
 DIRECTION dim            4  value   -4.1546391914819222E-002
 DIRECTION dim            5  value   -2.7963832128416670E-003
 DIRECTION dim            6  value  -0.59400436497903975     
 DIRECTION dim            7  value   -1.2093555860488756E-002
 DIRECTION dim            8  value   -1.5424246623784077E-002
 DIRECTION dim            9  value    9.3865443419112528E-005
 DIRECTION dim           10  value    2.3327334599739578E-003
 DIRECTION dim           11  value   -7.2688289209433049E-003
 DIRECTION dim           12  value   -5.8805220549213088E-003
 DIRECTION dim           13  value   -2.4392116215331643E-002
 DIRECTION dim           14  value   -3.7140243668387411E-002
 DIRECTION dim           15  value    3.0422612124722231E-002
 DIRECTION dim           16  value   -6.7352518355258739E-002
 DIRECTION dim           17  value   -2.9803244539630290E-003
 DIRECTION dim           18  value    6.0670715455472066E-003
 DIRECTION dim           19  value    2.6227081264113602E-002
 DIRECTION dim           20  value   -1.0678098279514401E-005
 DIRECTION dim           21  value    8.8221840128914694E-003
 DIRECTION dim           22  value    3.4527850663249017E-002
 DIRECTION dim           23  value   -2.4517456002482632E-002
 DIRECTION dim           24  value   -3.5081547899377903E-002
 DIRECTION dim           25  value   -6.6107825625187034E-003
 DIRECTION dim           26  value    7.1437934258673473E-003
 DIRECTION dim           27  value   -1.1345165128906239E-002
 DIRECTION dim           28  value   -2.3255454891012297E-002
 DIRECTION dim           29  value   -5.4060275739654627E-003
 DIRECTION dim           30  value    1.8708806015366661E-002
 DIRECTION dim           31  value    1.6944606853518087E-002
 DIRECTION dim           32  value    2.9550184492059720E-002
 DIRECTION dim           33  value   -5.9900092533053699E-003
 DIRECTION dim           34  value   -6.1547365298881835E-004
 DIRECTION dim           35  value    1.5795073111937560E-002
 DIRECTION dim           36  value    8.0326633504260950E-003
 DIRECTION dim           37  value   -1.2709313218117501E-002
 DIRECTION dim           38  value   -2.3839646848827497E-002
 DIRECTION dim           39  value   -5.2814061934356614E-003
 DIRECTION dim           40  value   -1.6320554180390530E-002
 DIRECTION dim           41  value    2.1073273148141832E-002
 DIRECTION dim           42  value    1.2926379040414677E-002
 DIRECTION dim           43  value    3.3485576570019045E-003
 DIRECTION dim           44  value   0.11772622937349633     
 DIRECTION dim           45  value    1.5781695953356070E-002
 DIRECTION dim           46  value   -3.7162135049065423E-003
 DIRECTION dim           47  value   -1.9746834611812827E-002
 DIRECTION dim           48  value   -2.6582254429781065E-002
  Cycle:     11 Energy:      -426.809077  Gnorm:      7.371494  CPU:    0.113
 ALPHA BEFORE:   0.11563551789912753     
 XC BEFORE:   0.46661561007844260     
  ** Opt : line minimisation
left   ...       0.00000000    -426.80907694
centre ...       0.02890888    -428.64951630
right  ...       0.05781776    -429.12070788

left   ...       0.00000000    -426.80907694
centre ...       0.02890888    -428.64951630
right  ...       0.05781776    -429.12070788
new    ...       0.05331157    -429.14327565

__s__    ...      -0.00450619

 ALPHA AFTER:    5.3311569936673131E-002
 XC AFTER:   0.46339180155868204     
 SANITY CHECK:    5.3311569936672333E-002
 DIRECTION dim            1  value   -6.0471085799762701E-002
 DIRECTION dim            2  value   -2.8868756619062370E-002
 DIRECTION dim            3  value   -2.0236779292857873E-002
 DIRECTION dim            4  value    5.4714521976379986E-002
 DIRECTION dim            5  value   -2.1832005988352068E-003
 DIRECTION dim            6  value  -0.47564062037362187     
 DIRECTION dim            7  value   -3.7009572907533712E-002
 DIRECTION dim            8  value   -2.7943542196474318E-002
 DIRECTION dim            9  value   -8.4603214153470554E-004
 DIRECTION dim           10  value    7.3675988602314585E-003
 DIRECTION dim           11  value   -3.0409593622012454E-002
 DIRECTION dim           12  value   -2.8952826158320268E-002
 DIRECTION dim           13  value   -9.9481412416087267E-002
 DIRECTION dim           14  value   -7.9300410320442091E-002
 DIRECTION dim           15  value   0.10334741808429332     
 DIRECTION dim           16  value  -0.17713675373615156     
 DIRECTION dim           17  value   -2.4151786967456072E-002
 DIRECTION dim           18  value    5.1385228258468800E-002
 DIRECTION dim           19  value    5.6423252863221689E-002
 DIRECTION dim           20  value    3.4624925578848061E-002
 DIRECTION dim           21  value   -1.5097881671874031E-002
 DIRECTION dim           22  value    8.6683410403947114E-002
 DIRECTION dim           23  value   -4.9971339775403099E-002
 DIRECTION dim           24  value  -0.10946121103754952     
 DIRECTION dim           25  value   -2.3618904092219631E-002
 DIRECTION dim           26  value    3.2714567461012242E-002
 DIRECTION dim           27  value   -5.9243723540765826E-002
 DIRECTION dim           28  value   -3.8606924397522696E-002
 DIRECTION dim           29  value   -1.8378781469502056E-002
 DIRECTION dim           30  value    6.7414819930588912E-002
 DIRECTION dim           31  value    2.0668927029919029E-002
 DIRECTION dim           32  value    6.2836552169384302E-002
 DIRECTION dim           33  value   -3.2403985272020847E-002
 DIRECTION dim           34  value   -2.1648025426222518E-003
 DIRECTION dim           35  value    3.2342158946163643E-002
 DIRECTION dim           36  value    2.5915280101788795E-002
 DIRECTION dim           37  value   -3.1708820228464892E-002
 DIRECTION dim           38  value   -8.0508037884629333E-002
 DIRECTION dim           39  value   -2.6561222993632030E-002
 DIRECTION dim           40  value   -5.4562805056843688E-002
 DIRECTION dim           41  value    6.3124359780092010E-002
 DIRECTION dim           42  value    2.1679109938103781E-002
 DIRECTION dim           43  value    5.4128888525639657E-002
 DIRECTION dim           44  value   0.46195905623614913     
 DIRECTION dim           45  value   0.11983917412270011     
 DIRECTION dim           46  value    3.6488855936662581E-002
 DIRECTION dim           47  value   -6.2382808175457528E-002
 DIRECTION dim           48  value  -0.16645238489433961     
  Cycle:     12 Energy:      -429.143276  Gnorm:      7.375547  CPU:    0.117
 ALPHA BEFORE:    6.4202040630014945E-002
 XC BEFORE:   0.46339180155868204     
  ** Opt : line minimisation
left   ...       0.00000000    -429.14327565
centre ...       0.01605051    -430.41952429
right  ...       0.03210102    -431.55845220

left   ...       0.00000000    -429.14327565
centre ...       0.01605051    -430.41952429
right  ...       0.03210102    -431.55845220
new    ...       0.15719750    -435.54586638

__s__    ...       0.12509648

left   ...       0.01605051    -430.41952429
centre ...       0.03210102    -431.55845220
right  ...       0.15719750    -435.54586638
new    ...       0.15220463    -435.55939306

__s__    ...      -0.00499287

 ALPHA AFTER:   0.15220462834316234     
 XC AFTER:   0.45336973458441154     
 SANITY CHECK:   0.15220462834316167     
 DIRECTION dim            1  value   -6.5846006677764538E-002
 DIRECTION dim            2  value   -1.1573298587474566E-002
 DIRECTION dim            3  value   -6.6478302776526485E-002
 DIRECTION dim            4  value    3.1756283264220211E-002
 DIRECTION dim            5  value   -2.1174318270472607E-002
 DIRECTION dim            6  value   0.12799108510376694     
 DIRECTION dim            7  value   -4.2697311441094128E-002
 DIRECTION dim            8  value   -4.9646098121489547E-002
 DIRECTION dim            9  value    1.3020221359351326E-003
 DIRECTION dim           10  value    7.9618251790419606E-003
 DIRECTION dim           11  value   -3.4497315514529746E-002
 DIRECTION dim           12  value   -2.0106848087337242E-002
 DIRECTION dim           13  value   -7.3890461757654471E-002
 DIRECTION dim           14  value  -0.13627758170813836     
 DIRECTION dim           15  value   0.12325089130066137     
 DIRECTION dim           16  value  -0.26446273544125642     
 DIRECTION dim           17  value   -6.2061391394156243E-003
 DIRECTION dim           18  value    1.2730254724795711E-002
 DIRECTION dim           19  value    8.7405759812241537E-002
 DIRECTION dim           20  value    1.2446698241688604E-002
 DIRECTION dim           21  value    2.6118133419513048E-002
 DIRECTION dim           22  value   0.12416433585605897     
 DIRECTION dim           23  value   -7.9882514277747549E-002
 DIRECTION dim           24  value  -0.13083327881163997     
 DIRECTION dim           25  value   -2.3289566024073016E-002
 DIRECTION dim           26  value    3.0567078932739394E-002
 DIRECTION dim           27  value   -4.1242096131507568E-002
 DIRECTION dim           28  value   -6.8190663227642764E-002
 DIRECTION dim           29  value   -1.8827158124330709E-002
 DIRECTION dim           30  value    6.6102271893235240E-002
 DIRECTION dim           31  value    7.5840522563758228E-002
 DIRECTION dim           32  value   0.11438507855070512     
 DIRECTION dim           33  value   -1.9699065534970726E-002
 DIRECTION dim           34  value   -1.7908598496740422E-003
 DIRECTION dim           35  value    5.0925228395329793E-002
 DIRECTION dim           36  value    2.8654162167625018E-002
 DIRECTION dim           37  value   -3.8998448371744175E-002
 DIRECTION dim           38  value   -9.2621975393264694E-002
 DIRECTION dim           39  value   -1.9361905209499746E-002
 DIRECTION dim           40  value  -0.12494655912232618     
 DIRECTION dim           41  value    6.3083617445757620E-002
 DIRECTION dim           42  value    3.3609764426137424E-002
 DIRECTION dim           43  value    2.4406252247153860E-002
 DIRECTION dim           44  value   0.40462358421955341     
 DIRECTION dim           45  value    6.4960563973393254E-002
 DIRECTION dim           46  value   -3.4731416368989694E-002
 DIRECTION dim           47  value   -3.9214655238430200E-002
 DIRECTION dim           48  value   -5.6712834687699852E-002
  Cycle:     13 Energy:      -435.559393  Gnorm:      5.622651  CPU:    0.122
 ALPHA BEFORE:   0.24230125797700391     
 XC BEFORE:   0.45336973458441154     
  ** Opt : line minimisation
left   ...       0.00000000    -435.55939306
centre ...       0.06057531    -437.66416443
right  ...       0.12115063    -439.28843289

left   ...       0.00000000    -435.55939306
centre ...       0.06057531    -437.66416443
right  ...       0.12115063    -439.28843289
new    ...       0.29562879    -441.37986496

__s__    ...       0.17447816

left   ...       0.06057531    -437.66416443
centre ...       0.12115063    -439.28843289
right  ...       0.29562879    -441.37986496
new    ...       0.30340179    -441.38964870

__s__    ...       0.00777299

 ALPHA AFTER:   0.30340178528827899     
 XC AFTER:   0.43835801400239982     
 SANITY CHECK:   0.30340178528828010     
 DIRECTION dim            1  value   -4.9478023234926560E-002
 DIRECTION dim            2  value   -1.6824260534404601E-002
 DIRECTION dim            3  value   -4.7487996872557330E-002
 DIRECTION dim            4  value    2.2965402878268933E-002
 DIRECTION dim            5  value   -1.2045457836952995E-002
 DIRECTION dim            6  value    4.1966835919697326E-002
 DIRECTION dim            7  value   -1.1531225379839560E-002
 DIRECTION dim            8  value    3.1809704502064749E-003
 DIRECTION dim            9  value    4.5171289701606675E-003
 DIRECTION dim           10  value    3.0311447928371487E-003
 DIRECTION dim           11  value   -4.0676129747403832E-002
 DIRECTION dim           12  value   -1.3133985967480966E-003
 DIRECTION dim           13  value    6.7758013670736091E-003
 DIRECTION dim           14  value   -6.8328824449087874E-002
 DIRECTION dim           15  value    6.2640915803335848E-002
 DIRECTION dim           16  value  -0.15278990822557659     
 DIRECTION dim           17  value   -9.5404763732142416E-003
 DIRECTION dim           18  value    7.4638779602251796E-003
 DIRECTION dim           19  value    2.8911582594378891E-002
 DIRECTION dim           20  value    9.5960385973321242E-003
 DIRECTION dim           21  value    1.8167300583893077E-002
 DIRECTION dim           22  value   -1.5039114752557608E-002
 DIRECTION dim           23  value   0.11081864814842900     
 DIRECTION dim           24  value   -3.1790324352016924E-002
 DIRECTION dim           25  value   -2.0097602423299478E-002
 DIRECTION dim           26  value    4.3279898797866728E-002
 DIRECTION dim           27  value   -2.3665301272863207E-002
 DIRECTION dim           28  value    1.2608091514193271E-002
 DIRECTION dim           29  value   -1.4751400460479259E-003
 DIRECTION dim           30  value    2.1465691221530196E-002
 DIRECTION dim           31  value    4.0773782619490384E-002
 DIRECTION dim           32  value    5.7272691213983554E-002
 DIRECTION dim           33  value   -1.8045773899305621E-002
 DIRECTION dim           34  value    2.1675711695894089E-002
 DIRECTION dim           35  value   -6.5093670295449352E-002
 DIRECTION dim           36  value    1.8875615997272731E-003
 DIRECTION dim           37  value    1.2768111276367552E-002
 DIRECTION dim           38  value   -6.2150057092013322E-002
 DIRECTION dim           39  value   -6.5682706345845023E-003
 DIRECTION dim           40  value   -7.6920027519362569E-002
 DIRECTION dim           41  value    3.9122573147289778E-002
 DIRECTION dim           42  value    3.1407179385695261E-002
 DIRECTION dim           43  value    9.7970090499418881E-003
 DIRECTION dim           44  value   0.20296841466390028     
 DIRECTION dim           45  value    4.3559017293293867E-002
 DIRECTION dim           46  value    7.0297696599840767E-002
 DIRECTION dim           47  value   -5.8636993140276275E-002
 DIRECTION dim           48  value  -0.19008592146375866     
  Cycle:     14 Energy:      -441.389649  Gnorm:      3.531371  CPU:    0.127
 ALPHA BEFORE:   0.65680658518430390     
 XC BEFORE:   0.43835801400239982     
  ** Opt : line minimisation
left   ...       0.00000000    -441.38964870
centre ...       0.16420165    -443.12323760
right  ...       0.32840329    -444.45835047

left   ...       0.00000000    -441.38964870
centre ...       0.16420165    -443.12323760
right  ...       0.32840329    -444.45835047
new    ...       0.79646788    -445.80189989

__s__    ...       0.46806459

left   ...       0.16420165    -443.12323760
centre ...       0.32840329    -444.45835047
right  ...       0.79646788    -445.80189989
new    ...       0.73493631    -445.84953073

__s__    ...      -0.06153157

 ALPHA AFTER:   0.73493631402828141     
 XC AFTER:   0.42097746094389721     
 SANITY CHECK:   0.73493631402828019     
 DIRECTION dim            1  value   -2.3649060097789387E-002
 DIRECTION dim            2  value   -2.2577941256640893E-002
 DIRECTION dim            3  value   -1.5206654715317800E-002
 DIRECTION dim            4  value    3.0694687022748534E-002
 DIRECTION dim            5  value   -1.6302126803519087E-003
 DIRECTION dim            6  value    2.8132382825720075E-003
 DIRECTION dim            7  value   -8.4225197230203708E-004
 DIRECTION dim            8  value    3.1458198098137553E-002
 DIRECTION dim            9  value    4.6136295067552967E-003
 DIRECTION dim           10  value   -2.9191177233778829E-003
 DIRECTION dim           11  value   -3.1915118823885036E-002
 DIRECTION dim           12  value    9.2984284241260356E-003
 DIRECTION dim           13  value    2.3620301412903107E-002
 DIRECTION dim           14  value   -9.0982496549706828E-003
 DIRECTION dim           15  value    3.3439937769000044E-003
 DIRECTION dim           16  value   -2.1291325180032461E-002
 DIRECTION dim           17  value   -1.6010409839646356E-002
 DIRECTION dim           18  value    1.1332278045736268E-002
 DIRECTION dim           19  value   -2.0290091993370396E-002
 DIRECTION dim           20  value    1.2464177732835065E-002
 DIRECTION dim           21  value    5.2642038344318902E-003
 DIRECTION dim           22  value    1.6519472597960598E-002
 DIRECTION dim           23  value    3.7416951745661295E-003
 DIRECTION dim           24  value   -2.8926429278617237E-002
 DIRECTION dim           25  value   -1.1932378910013849E-002
 DIRECTION dim           26  value    4.8444738487508021E-002
 DIRECTION dim           27  value   -1.7449759408233886E-002
 DIRECTION dim           28  value    7.1788568847575923E-002
 DIRECTION dim           29  value    5.6825674530854662E-003
 DIRECTION dim           30  value   -7.7375422737183137E-003
 DIRECTION dim           31  value    7.7819608648788657E-003
 DIRECTION dim           32  value    3.6789535387395213E-003
 DIRECTION dim           33  value   -1.7410498495666549E-002
 DIRECTION dim           34  value   -2.7442116439008743E-003
 DIRECTION dim           35  value   -1.0538586717452605E-002
 DIRECTION dim           36  value   -2.4880509011855259E-004
 DIRECTION dim           37  value    3.1973405170986215E-002
 DIRECTION dim           38  value   -3.5808806450289977E-002
 DIRECTION dim           39  value    1.3425927674529895E-003
 DIRECTION dim           40  value   -2.8743244844691287E-002
 DIRECTION dim           41  value    1.5167714309778422E-002
 DIRECTION dim           42  value    2.2648344269137505E-002
 DIRECTION dim           43  value   -2.5216289674312567E-002
 DIRECTION dim           44  value   -3.9331084896931878E-002
 DIRECTION dim           45  value    1.4324126404219782E-002
 DIRECTION dim           46  value    4.0495720194820430E-002
 DIRECTION dim           47  value    1.2830800991117027E-002
 DIRECTION dim           48  value  -0.10973595108700079     
  Cycle:     15 Energy:      -445.849531  Gnorm:      2.224239  CPU:    0.131
 ALPHA BEFORE:    1.1824518049091588     
 XC BEFORE:   0.42097746094389721     
  ** Opt : line minimisation
left   ...       0.00000000    -445.84953073
centre ...       0.29561295    -446.75748771
right  ...       0.59122590    -447.22775624

left   ...       0.00000000    -445.84953073
centre ...       0.29561295    -446.75748771
right  ...       0.59122590    -447.22775624
new    ...       0.76103683    -447.29220357

__s__    ...       0.16981092

 ALPHA AFTER:   0.76103682594326061     
 XC AFTER:   0.42470296578071060     
 SANITY CHECK:   0.76103682594327127     
 DIRECTION dim            1  value    4.8953016592801404E-003
 DIRECTION dim            2  value   -1.4529708671149015E-002
 DIRECTION dim            3  value    1.0526152599768055E-002
 DIRECTION dim            4  value   -2.5544665842510517E-002
 DIRECTION dim            5  value    1.8396717851283505E-003
 DIRECTION dim            6  value    4.5494257892700167E-003
 DIRECTION dim            7  value   -1.4636609400779696E-002
 DIRECTION dim            8  value    6.7528706022094310E-003
 DIRECTION dim            9  value   -2.6437497638062374E-003
 DIRECTION dim           10  value   -1.0107299418273685E-002
 DIRECTION dim           11  value    8.8479225593013685E-003
 DIRECTION dim           12  value    3.4648810815505067E-003
 DIRECTION dim           13  value    1.3603804224267579E-002
 DIRECTION dim           14  value   -1.5745640266052435E-002
 DIRECTION dim           15  value   -4.7436677597812874E-003
 DIRECTION dim           16  value    2.8040042411672669E-002
 DIRECTION dim           17  value   -1.1614532941780246E-002
 DIRECTION dim           18  value    6.4531263076994718E-003
 DIRECTION dim           19  value   -1.9515263783067720E-002
 DIRECTION dim           20  value   -3.2413099981608382E-003
 DIRECTION dim           21  value    1.4140014045476029E-003
 DIRECTION dim           22  value    6.9022422706042433E-003
 DIRECTION dim           23  value    2.6618805658789103E-003
 DIRECTION dim           24  value   -5.9359453718184664E-003
 DIRECTION dim           25  value   -1.0856495752428787E-002
 DIRECTION dim           26  value   -1.9876336642105575E-002
 DIRECTION dim           27  value   -4.1496679147178675E-003
 DIRECTION dim           28  value    6.6222351910386792E-002
 DIRECTION dim           29  value   -9.8604736862933709E-003
 DIRECTION dim           30  value   -5.0694674800277149E-003
 DIRECTION dim           31  value    1.2192235886770552E-002
 DIRECTION dim           32  value   -1.5117735197706570E-003
 DIRECTION dim           33  value   -3.8212392077621583E-003
 DIRECTION dim           34  value    5.2974373229966098E-003
 DIRECTION dim           35  value    2.2295749115122765E-003
 DIRECTION dim           36  value    4.5495239501513963E-004
 DIRECTION dim           37  value    2.2412239191483659E-002
 DIRECTION dim           38  value   -4.6844018984115218E-003
 DIRECTION dim           39  value    3.1290292030515640E-003
 DIRECTION dim           40  value   -4.5518287780275356E-003
 DIRECTION dim           41  value    2.8785791607105721E-004
 DIRECTION dim           42  value    1.9095616209829095E-004
 DIRECTION dim           43  value   -1.1842934575868347E-002
 DIRECTION dim           44  value   -3.0592061851122801E-002
 DIRECTION dim           45  value    1.7184320868902109E-002
 DIRECTION dim           46  value    5.0855933539822588E-002
 DIRECTION dim           47  value    2.8620331446426124E-002
 DIRECTION dim           48  value   -6.6555769347458327E-003
  Cycle:     16 Energy:      -447.292204  Gnorm:      2.286167  CPU:    0.135
 ALPHA BEFORE:   0.52853578830132930     
 XC BEFORE:   0.42470296578071060     
  ** Opt : line minimisation
left   ...       0.00000000    -447.29220357
centre ...       0.13213395    -447.71422370
right  ...       0.26426789    -447.97554168

left   ...       0.00000000    -447.29220357
centre ...       0.13213395    -447.71422370
right  ...       0.26426789    -447.97554168
new    ...       0.41306409    -448.06956758

__s__    ...       0.14879620

 ALPHA AFTER:   0.41306408956838303     
 XC AFTER:   0.43169610304039296     
 SANITY CHECK:   0.41306408956838353     
 DIRECTION dim            1  value    1.6929908545159654E-002
 DIRECTION dim            2  value   -1.7757680064862204E-002
 DIRECTION dim            3  value    1.8440304765231789E-002
 DIRECTION dim            4  value    3.4432879799013938E-002
 DIRECTION dim            5  value    3.6759846614266168E-003
 DIRECTION dim            6  value   -2.8670889017154338E-002
 DIRECTION dim            7  value   -9.1556215236335819E-003
 DIRECTION dim            8  value    1.3828678778629354E-002
 DIRECTION dim            9  value   -1.2275452119551620E-003
 DIRECTION dim           10  value   -1.0551370376723100E-002
 DIRECTION dim           11  value    2.2292606197960637E-003
 DIRECTION dim           12  value    1.1079279551053948E-002
 DIRECTION dim           13  value   -4.8001097715928524E-002
 DIRECTION dim           14  value   -2.7422135418329833E-003
 DIRECTION dim           15  value    9.3631345949149597E-003
 DIRECTION dim           16  value    2.7428482408093268E-002
 DIRECTION dim           17  value   -1.9371022699431723E-002
 DIRECTION dim           18  value    7.3457332091786207E-003
 DIRECTION dim           19  value   -1.4820432598652723E-002
 DIRECTION dim           20  value    5.0198962222873450E-003
 DIRECTION dim           21  value    1.5574012138731409E-003
 DIRECTION dim           22  value    1.3626033092087474E-002
 DIRECTION dim           23  value    2.9591611340653540E-003
 DIRECTION dim           24  value   -5.1096650029152889E-003
 DIRECTION dim           25  value   -9.3871886903819281E-003
 DIRECTION dim           26  value   -1.9844608161094558E-002
 DIRECTION dim           27  value    1.3389511096517153E-003
 DIRECTION dim           28  value    9.4666359128997304E-002
 DIRECTION dim           29  value   -2.0660164768467267E-002
 DIRECTION dim           30  value   -5.6957485623539330E-003
 DIRECTION dim           31  value    2.8284897259343859E-002
 DIRECTION dim           32  value   -1.5080783952286334E-002
 DIRECTION dim           33  value   -3.4837621993807775E-004
 DIRECTION dim           34  value   -9.5895576851632290E-004
 DIRECTION dim           35  value    5.9178844010089864E-003
 DIRECTION dim           36  value   -3.9219593730264813E-003
 DIRECTION dim           37  value    1.3073804912560135E-002
 DIRECTION dim           38  value   -1.0092831825162817E-002
 DIRECTION dim           39  value    5.6222412803455281E-003
 DIRECTION dim           40  value   -1.0516264818242183E-002
 DIRECTION dim           41  value   -5.1077239244962840E-003
 DIRECTION dim           42  value   -5.7502464883479399E-003
 DIRECTION dim           43  value    3.1972752201077309E-003
 DIRECTION dim           44  value   -2.1049018632566044E-002
 DIRECTION dim           45  value    1.8366804054138198E-002
 DIRECTION dim           46  value    8.6944078084238180E-002
 DIRECTION dim           47  value    4.0861539313480931E-002
 DIRECTION dim           48  value   -3.8180549680875463E-003
  Cycle:     17 Energy:      -448.069568  Gnorm:      2.112340  CPU:    0.140
 ALPHA BEFORE:   0.46056256659695777     
 XC BEFORE:   0.43169610304039296     
  ** Opt : line minimisation
left   ...       0.00000000    -448.06956758
centre ...       0.11514064    -448.33113306
right  ...       0.23028128    -448.51312599

left   ...       0.00000000    -448.06956758
centre ...       0.11514064    -448.33113306
right  ...       0.23028128    -448.51312599
new    ...       0.43605280    -448.64262403

__s__    ...       0.20577151

left   ...       0.11514064    -448.33113306
centre ...       0.23028128    -448.51312599
right  ...       0.43605280    -448.64262403
new    ...       0.43931790    -448.64268498

__s__    ...       0.00326511

 ALPHA AFTER:   0.43931790268593840     
 XC AFTER:   0.43872173074498000     
 SANITY CHECK:   0.43931790268593224     
 DIRECTION dim            1  value    1.5992127026085812E-002
 DIRECTION dim            2  value   -1.4261937589034613E-002
 DIRECTION dim            3  value    1.8220212093698344E-002
 DIRECTION dim            4  value   -3.7653362690633393E-002
 DIRECTION dim            5  value    8.6153928693403943E-003
 DIRECTION dim            6  value    2.0168838391614249E-003
 DIRECTION dim            7  value    3.3233272655189940E-003
 DIRECTION dim            8  value    1.6617247263513459E-002
 DIRECTION dim            9  value    1.6653892605611822E-003
 DIRECTION dim           10  value   -9.8264197832584298E-003
 DIRECTION dim           11  value   -5.3849187179826341E-003
 DIRECTION dim           12  value    1.1649372116905258E-002
 DIRECTION dim           13  value   -2.5812186908799824E-002
 DIRECTION dim           14  value    1.5431418069843848E-002
 DIRECTION dim           15  value    2.2429705994009824E-002
 DIRECTION dim           16  value    1.5496755986314300E-002
 DIRECTION dim           17  value   -2.1115634531240279E-002
 DIRECTION dim           18  value    7.1224036690132860E-003
 DIRECTION dim           19  value   -1.3811824256717158E-002
 DIRECTION dim           20  value    1.5631955142625383E-002
 DIRECTION dim           21  value   -1.4137135318221371E-003
 DIRECTION dim           22  value    1.8755364758292228E-002
 DIRECTION dim           23  value    6.2764971773950030E-004
 DIRECTION dim           24  value   -6.7847119859935270E-003
 DIRECTION dim           25  value   -4.1977320862037829E-003
 DIRECTION dim           26  value   -6.1319480887651173E-004
 DIRECTION dim           27  value    2.5735817695901660E-003
 DIRECTION dim           28  value    7.7049599453091214E-002
 DIRECTION dim           29  value   -1.8840508581365864E-002
 DIRECTION dim           30  value    5.6199540033014623E-004
 DIRECTION dim           31  value    3.1390340174912428E-002
 DIRECTION dim           32  value   -2.2591775386149728E-002
 DIRECTION dim           33  value   -7.7609386562384761E-004
 DIRECTION dim           34  value   -4.5843164787412009E-003
 DIRECTION dim           35  value    2.0158529467404350E-003
 DIRECTION dim           36  value   -6.4220935751053369E-003
 DIRECTION dim           37  value    2.0131226622971836E-002
 DIRECTION dim           38  value   -1.2185990131317652E-002
 DIRECTION dim           39  value    5.2328283874537272E-003
 DIRECTION dim           40  value    1.0494102459432629E-002
 DIRECTION dim           41  value    1.7538417353827581E-003
 DIRECTION dim           42  value   -2.9855543521558948E-003
 DIRECTION dim           43  value    5.3871449591189266E-003
 DIRECTION dim           44  value    2.4784356854911021E-002
 DIRECTION dim           45  value    1.1097689064467358E-002
 DIRECTION dim           46  value    8.2494950107077608E-002
 DIRECTION dim           47  value    2.6467677389039809E-002
 DIRECTION dim           48  value    2.5875129497736696E-002
  Cycle:     18 Energy:      -448.642685  Gnorm:      2.005778  CPU:    0.146
  ** Hessian calculated **
 ALPHA BEFORE:    1.0000000000000000     
 XC BEFORE:   0.43872173074498000     
[...]
 DIRECTION dim           37  value    2.3506336249044042E-004
 DIRECTION dim           38  value   -1.1132146181793352E-004
 DIRECTION dim           39  value    1.6283163305299059E-004
 DIRECTION dim           40  value   -2.6617436656673540E-004
 DIRECTION dim           41  value   -1.9215806243925583E-004
 DIRECTION dim           42  value    8.9952759011485562E-005
 DIRECTION dim           43  value    1.5586598924321188E-004
 DIRECTION dim           44  value    1.1648250026560396E-003
 DIRECTION dim           45  value    2.1609921089883719E-004
 DIRECTION dim           46  value   -2.0568286339018985E-003
 DIRECTION dim           47  value   -2.1614733941210692E-003
 DIRECTION dim           48  value    2.0375097057271185E-003
  Cycle:    111 Energy:      -470.201206  Gnorm:      0.048544  CPU:    1.171
 ALPHA BEFORE:    1.4797682459975377E-005
 XC BEFORE:   0.46323277848898664     
  ** Opt : line minimisation
left   ...       0.00000000    -470.20120639
centre ...       0.00000370    -470.19963142
right  ...      -0.00000370    -470.20120637

left   ...      -0.00000370    -470.20120637
centre ...       0.00000000    -470.20120639
right  ...       0.00000370    -470.19963142
new    ...      -0.00000185    -470.20120638

__s__    ...       0.00000185

 ALPHA AFTER:   -1.8496706731550721E-006
 XC AFTER:   0.46323277848898664     
 SANITY CHECK:    0.0000000000000000     
 DIRECTION dim            1  value    3.2656981321945073E-004
 DIRECTION dim            2  value    2.9623204732976631E-004
 DIRECTION dim            3  value   -1.5394050616519931E-004
 DIRECTION dim            4  value   -4.0769873627598925E-004
 DIRECTION dim            5  value   -2.6230981110352951E-004
 DIRECTION dim            6  value   -8.1933118526126105E-005
 DIRECTION dim            7  value   -1.1768417058441998E-005
 DIRECTION dim            8  value    3.0047750799176898E-006
 DIRECTION dim            9  value    1.5577173513264914E-004
 DIRECTION dim           10  value    4.1495212364666266E-005
 DIRECTION dim           11  value   -2.0510397527829315E-004
 DIRECTION dim           12  value    1.5687498739069938E-004
 DIRECTION dim           13  value   -1.8820481710837020E-006
 DIRECTION dim           14  value   -8.6891403185532194E-005
 DIRECTION dim           15  value   -1.5463013529434070E-004
 DIRECTION dim           16  value    4.1896537733198140E-004
 DIRECTION dim           17  value    5.6574736523326314E-004
 DIRECTION dim           18  value   -1.0716817811329045E-004
 DIRECTION dim           19  value    3.3157600012755274E-004
 DIRECTION dim           20  value    2.6441884882312777E-004
 DIRECTION dim           21  value   -5.6936826460944160E-005
 DIRECTION dim           22  value    5.3090216180886467E-005
 DIRECTION dim           23  value    1.5722377198727823E-004
 DIRECTION dim           24  value   -1.9235859089182289E-004
 DIRECTION dim           25  value    8.0945580383190549E-004
 DIRECTION dim           26  value    1.4673887386321252E-004
 DIRECTION dim           27  value    3.5525316999534698E-005
 DIRECTION dim           28  value   -6.9008602328849962E-004
 DIRECTION dim           29  value   -9.9811103204506434E-005
 DIRECTION dim           30  value   -2.6503006645326458E-004
 DIRECTION dim           31  value   -4.6018109108731281E-004
 DIRECTION dim           32  value   -6.3640252149468955E-004
 DIRECTION dim           33  value    1.3463603195279701E-004
 DIRECTION dim           34  value    1.3744602926196712E-007
 DIRECTION dim           35  value   -2.4219055141928333E-005
 DIRECTION dim           36  value    4.3053748787361318E-006
 DIRECTION dim           37  value    2.3500444578969590E-004
 DIRECTION dim           38  value   -1.1127469335919344E-004
 DIRECTION dim           39  value    1.6275959522101053E-004
 DIRECTION dim           40  value   -2.6608431215816773E-004
 DIRECTION dim           41  value   -1.9207065170496839E-004
 DIRECTION dim           42  value    8.9910073949799082E-005
 DIRECTION dim           43  value    1.5583806870180601E-004
 DIRECTION dim           44  value    1.1646471864303187E-003
 DIRECTION dim           45  value    2.1601778025057139E-004
 DIRECTION dim           46  value   -2.0563463174517547E-003
 DIRECTION dim           47  value   -2.1610084231411860E-003
 DIRECTION dim           48  value    2.0370982333313714E-003
  Cycle:    112 Energy:      -470.201206  Gnorm:      0.048544  CPU:    1.182
  ** Hessian calculated **
 ALPHA BEFORE:    1.0000000000000000     
 XC BEFORE:   0.46323277848898664     
  ** Opt : line minimisation
left   ...       0.00000000    -470.20120639
centre ...       0.25000000    -470.20059873
right  ...      -0.25000000    -470.19970881

left   ...      -0.25000000    -470.19970881
centre ...       0.00000000    -470.20120639
right  ...       0.25000000    -470.20059873
new    ...       0.05283982    -470.19988020

__s__    ...       0.30283982

left   ...      -0.25000000    -470.19970881
centre ...       0.00000000    -470.20120639
right  ...       0.05283982    -470.19988020
new    ...      -0.09582363    -470.20069542

__s__    ...      -0.14866346

left   ...      -0.09582363    -470.20069542
centre ...       0.00000000    -470.20120639
right  ...       0.05283982    -470.19988020
new    ...      -0.03488668    -470.20102942

__s__    ...       0.06093696

left   ...      -0.03488668    -470.20102942
centre ...       0.00000000    -470.20120639
right  ...       0.05283982    -470.19988020
new    ...      -0.01006874    -470.20115638

__s__    ...       0.02481794

left   ...      -0.01006874    -470.20115638
centre ...       0.00000000    -470.20120639
right  ...       0.05283982    -470.19988020
new    ...       0.00016188    -470.19963220

__s__    ...       0.01023062

left   ...      -0.01006874    -470.20115638
centre ...       0.00000000    -470.20120639
right  ...       0.00016188    -470.19963220
new    ...      -0.00503176    -470.20118150

__s__    ...      -0.00519364

 ALPHA AFTER:   -5.0317573363064362E-003
 XC AFTER:   0.46323277848898664     
 SANITY CHECK:    0.0000000000000000     
 DIRECTION dim            1  value    3.5375826182253373E-004
 DIRECTION dim            2  value    3.2625569775249176E-004
 DIRECTION dim            3  value   -1.6888851404303520E-004
 DIRECTION dim            4  value   -4.4421924969180449E-004
 DIRECTION dim            5  value   -2.9625073089942873E-004
 DIRECTION dim            6  value   -9.0140405563601380E-005
 DIRECTION dim            7  value   -1.9076085289454984E-005
 DIRECTION dim            8  value   -2.5940618554347486E-006
 DIRECTION dim            9  value    1.7010823465302979E-004
 DIRECTION dim           10  value    4.9747856339020666E-005
 DIRECTION dim           11  value   -2.2636572781434150E-004
 DIRECTION dim           12  value    1.7278455844767541E-004
 DIRECTION dim           13  value    5.8062192468705128E-006
 DIRECTION dim           14  value   -7.4672753809939185E-005
 DIRECTION dim           15  value   -1.6886919235246966E-004
 DIRECTION dim           16  value    4.5446482139576116E-004
 DIRECTION dim           17  value    6.1783333126643695E-004
 DIRECTION dim           18  value   -1.1757952094563379E-004
 DIRECTION dim           19  value    3.6473008947496440E-004
 DIRECTION dim           20  value    2.9534265471561569E-004
 DIRECTION dim           21  value   -6.7785844163271460E-005
 DIRECTION dim           22  value    6.4538330783446096E-005
 DIRECTION dim           23  value    1.7506711715314466E-004
 DIRECTION dim           24  value   -2.0231330943939257E-004
 DIRECTION dim           25  value    8.8305631251563285E-004
 DIRECTION dim           26  value    1.7695599020235310E-004
 DIRECTION dim           27  value    4.4435414477371502E-005
 DIRECTION dim           28  value   -7.3063047545536552E-004
 DIRECTION dim           29  value   -1.0400614384164062E-004
 DIRECTION dim           30  value   -2.8934320213352770E-004
 DIRECTION dim           31  value   -5.1171304958388020E-004
 DIRECTION dim           32  value   -6.9536320588852829E-004
 DIRECTION dim           33  value    1.3736715976150681E-004
 DIRECTION dim           34  value   -1.7075234322361310E-006
 DIRECTION dim           35  value   -2.5616272884363750E-005
 DIRECTION dim           36  value    2.1295586482719910E-006
 DIRECTION dim           37  value    2.5124300870832741E-004
 DIRECTION dim           38  value   -1.2466618166356820E-004
 DIRECTION dim           39  value    1.8307401856186399E-004
 DIRECTION dim           40  value   -2.9119575760784832E-004
 DIRECTION dim           41  value   -2.1660831598692168E-004
 DIRECTION dim           42  value    1.0204965546641300E-004
 DIRECTION dim           43  value    1.6374059658245783E-004
 DIRECTION dim           44  value    1.2151304274302219E-003
 DIRECTION dim           45  value    2.3889449792625900E-004
 DIRECTION dim           46  value   -2.1923535984110982E-003
 DIRECTION dim           47  value   -2.2910316639012497E-003
 DIRECTION dim           48  value    2.1523446002459238E-003
  Cycle:    113 Energy:      -470.201206  Gnorm:      0.048544  CPU:    1.208
  ** Hessian calculated **
 ALPHA BEFORE:    1.0000000000000000     
 XC BEFORE:   0.46323277848898664     
  ** Opt : line minimisation
left   ...       0.00000000    -470.20120639
centre ...       0.25000000    -470.20059873
right  ...      -0.25000000    -470.19970881

left   ...      -0.25000000    -470.19970881
centre ...       0.00000000    -470.20120639
right  ...       0.25000000    -470.20059873
new    ...       0.05283982    -470.19988020

__s__    ...       0.30283982

left   ...      -0.25000000    -470.19970881
centre ...       0.00000000    -470.20120639
right  ...       0.05283982    -470.19988020
new    ...      -0.09582363    -470.20069542

__s__    ...      -0.14866346

left   ...      -0.09582363    -470.20069542
centre ...       0.00000000    -470.20120639
right  ...       0.05283982    -470.19988020
new    ...      -0.03488668    -470.20102942

__s__    ...       0.06093696

left   ...      -0.03488668    -470.20102942
centre ...       0.00000000    -470.20120639
right  ...       0.05283982    -470.19988020
new    ...      -0.01006874    -470.20115638

__s__    ...       0.02481794

left   ...      -0.01006874    -470.20115638
centre ...       0.00000000    -470.20120639
right  ...       0.05283982    -470.19988020
new    ...       0.00016188    -470.19963220

__s__    ...       0.01023062

left   ...      -0.01006874    -470.20115638
centre ...       0.00000000    -470.20120639
right  ...       0.00016188    -470.19963220
new    ...      -0.00503176    -470.20118150

__s__    ...      -0.00519364

 ALPHA AFTER:   -5.0317573363064362E-003
 XC AFTER:   0.46323277848898664     
 SANITY CHECK:    0.0000000000000000     
 DIRECTION dim            1  value    3.5375826182253373E-004
 DIRECTION dim            2  value    3.2625569775249176E-004
 DIRECTION dim            3  value   -1.6888851404303520E-004
 DIRECTION dim            4  value   -4.4421924969180449E-004
 DIRECTION dim            5  value   -2.9625073089942873E-004
 DIRECTION dim            6  value   -9.0140405563601380E-005
 DIRECTION dim            7  value   -1.9076085289454984E-005
 DIRECTION dim            8  value   -2.5940618554347486E-006
 DIRECTION dim            9  value    1.7010823465302979E-004
 DIRECTION dim           10  value    4.9747856339020666E-005
 DIRECTION dim           11  value   -2.2636572781434150E-004
 DIRECTION dim           12  value    1.7278455844767541E-004
 DIRECTION dim           13  value    5.8062192468705128E-006
 DIRECTION dim           14  value   -7.4672753809939185E-005
 DIRECTION dim           15  value   -1.6886919235246966E-004
 DIRECTION dim           16  value    4.5446482139576116E-004
 DIRECTION dim           17  value    6.1783333126643695E-004
 DIRECTION dim           18  value   -1.1757952094563379E-004
 DIRECTION dim           19  value    3.6473008947496440E-004
 DIRECTION dim           20  value    2.9534265471561569E-004
 DIRECTION dim           21  value   -6.7785844163271460E-005
 DIRECTION dim           22  value    6.4538330783446096E-005
 DIRECTION dim           23  value    1.7506711715314466E-004
 DIRECTION dim           24  value   -2.0231330943939257E-004
 DIRECTION dim           25  value    8.8305631251563285E-004
 DIRECTION dim           26  value    1.7695599020235310E-004
 DIRECTION dim           27  value    4.4435414477371502E-005
 DIRECTION dim           28  value   -7.3063047545536552E-004
 DIRECTION dim           29  value   -1.0400614384164062E-004
 DIRECTION dim           30  value   -2.8934320213352770E-004
 DIRECTION dim           31  value   -5.1171304958388020E-004
 DIRECTION dim           32  value   -6.9536320588852829E-004
 DIRECTION dim           33  value    1.3736715976150681E-004
 DIRECTION dim           34  value   -1.7075234322361310E-006
 DIRECTION dim           35  value   -2.5616272884363750E-005
 DIRECTION dim           36  value    2.1295586482719910E-006
 DIRECTION dim           37  value    2.5124300870832741E-004
 DIRECTION dim           38  value   -1.2466618166356820E-004
 DIRECTION dim           39  value    1.8307401856186399E-004
 DIRECTION dim           40  value   -2.9119575760784832E-004
 DIRECTION dim           41  value   -2.1660831598692168E-004
 DIRECTION dim           42  value    1.0204965546641300E-004
 DIRECTION dim           43  value    1.6374059658245783E-004
 DIRECTION dim           44  value    1.2151304274302219E-003
 DIRECTION dim           45  value    2.3889449792625900E-004
 DIRECTION dim           46  value   -2.1923535984110982E-003
 DIRECTION dim           47  value   -2.2910316639012497E-003
 DIRECTION dim           48  value    2.1523446002459238E-003


  **** Conditions for a minimum have not been satisfied. However ****
  **** no lower point can be found - treat results with caution  ****
  **** unless gradient norm is small (less than 0.1)             ****


  Final energy =    -470.20120639 eV
  Final Gnorm  =       0.04854441

  Components of energy : 

--------------------------------------------------------------------------------
  Interatomic potentials     =          71.26263828 eV    
  Monopole - monopole (real) =        -261.24666525 eV    
  Monopole - monopole (recip)=        -280.21717942 eV    
  Monopole - monopole (total)=        -541.46384467 eV    
--------------------------------------------------------------------------------
  Total lattice energy       =        -470.20120639 eV    
--------------------------------------------------------------------------------
  Total lattice energy       =          -45367.2287 kJ/(mole unit cells)
--------------------------------------------------------------------------------

  Final fractional coordinates of atoms :

--------------------------------------------------------------------------------
   No.  Atomic        x           y          z          Radius
        Label       (Frac)      (Frac)     (Frac)       (Angs) 
--------------------------------------------------------------------------------
     1  O     c     0.000000    0.500000    0.250000    0.000000
     2  O     c     0.463233    0.145931    0.317924    0.000000
     3  O     c     0.429150    0.659386    0.472812    0.000000
     4  O     c     0.703252    0.460095    0.875409    0.000000
     5  O     c     0.321917    0.068667    0.833383    0.000000
     6  O     c     0.786011    0.916222    0.507335    0.000000
     7  O     c     0.166391    0.254362    0.594350    0.000000
     8  O     c     0.387076    0.671848    0.254196    0.000000
     9  O     c     0.043616    0.690601    0.895811    0.000000
    10  Sr    c     0.566568    0.499718    0.652619    0.000000
    11  Sr    c     0.160509    0.959750    0.107144    0.000000
    12  Sr    c     0.580871    0.195038    0.964525    0.000000
    13  Ti    c     0.083036    0.345578    0.792539    0.000000
    14  Ti    c     0.540062    0.869034    0.389937    0.000000
    15  Ti    c     0.212647    0.566047    0.373447    0.000000
--------------------------------------------------------------------------------

  Final Cartesian lattice vectors (Angstroms) :

        5.298374    1.664905    0.734491
        1.664905    5.499241   -1.167807
        1.468983   -2.335613    9.928202


  Final cell parameters and derivatives :

--------------------------------------------------------------------------------
       a            5.602156 Angstrom     dE/de1(xx)    -0.105931 eV/strain
       b            5.863219 Angstrom     dE/de2(yy)    -0.856825 eV/strain
       c           10.304474 Angstrom     dE/de3(zz)    -0.143800 eV/strain
       alpha      111.346741 Degrees      dE/de4(yz)     0.343278 eV/strain
       beta        78.826099 Degrees      dE/de5(xz)     0.360256 eV/strain
       gamma       58.588093 Degrees      dE/de6(xy)    -0.430819 eV/strain
--------------------------------------------------------------------------------

  Primitive cell volume =           235.661110 Angs**3

  Density of cell =      3.879050 g/cm**3

  Non-primitive cell volume =           235.661110 Angs**3


  Final internal derivatives :

--------------------------------------------------------------------------------
   No.  Atomic          a             b             c           Radius
        Label          (eV)          (eV)          (eV)        (eV/Angs)
--------------------------------------------------------------------------------
      1 O     c       0.000000      0.000000      0.000000      0.000000
      2 O     c      -0.179577     -0.459085      0.501625      0.000000
      3 O     c       0.381421      0.277361      0.335942      0.000000
      4 O     c       0.028699      0.001953     -0.297855      0.000000
      5 O     c      -0.028779      0.225080     -0.614106      0.000000
      6 O     c      -0.004557      0.038179      0.346559      0.000000
      7 O     c      -0.256855     -0.434102      0.581950      0.000000
      8 O     c      -0.249514     -0.268100      0.250586      0.000000
      9 O     c      -0.053837     -0.239503      0.272489      0.000000
     10 Sr    c      -0.235727     -0.064660     -0.063023      0.000000
     11 Sr    c       0.135710      0.031438      0.192432      0.000000
     12 Sr    c       0.182165      0.323630     -0.161676      0.000000
     13 Ti    c       0.003594      0.059394     -0.016731      0.000000
     14 Ti    c      -0.320730      0.197643     -0.841205      0.000000
     15 Ti    c       0.534924      0.407921     -0.495916      0.000000
--------------------------------------------------------------------------------
  Maximum abs         0.534924      0.459085      0.841205      0.000000
--------------------------------------------------------------------------------


  Time to end of optimisation =       1.2336 seconds

 Exiting ------OPTIONS------

  Peak dynamic memory used =       0.60 MB 


  Timing analysis for GULP :

--------------------------------------------------------------------------------
  Task / Subroutine                                          Time (Seconds)
--------------------------------------------------------------------------------
  Calculation of reciprocal space energy and derivatives          0.0795
  Calculation of real space energy and derivatives                1.1331
  Calculation and manipulation of Hessian matrix                  0.0003
  Calculation of matrix inversion                                 0.0011
  Global summation overhead                                       0.0004
--------------------------------------------------------------------------------
  Total CPU time                                                  1.2336
--------------------------------------------------------------------------------


  Job Finished at 13:26.16 21st February   2020                               

