********************************************************************************
*                       GENERAL UTILITY LATTICE PROGRAM                        *
*                                 Julian Gale                                  *
*                       Curtin Institute for Computation                       *
*                           Department of Chemistry                            *
*                    Curtin University, Western Australia                      *
********************************************************************************
* Version = 5.1.1 * Last modified =  25th August 2019                          *
********************************************************************************
*  optimise     - perform optimisation run                                     *
*  conp         - constant pressure calculation                                *
*  nosymmetry   - turn off symmetry after initial structure generation         *
*  full         - generate full unit cell when symmetry is removed             *
********************************************************************************
* ASE calculation                                                              *
********************************************************************************


  Job Started  at 13:26.15 21st February   2020                               

  Number of CPUs =     1


  Total number of configurations input =      1

********************************************************************************
*  Input for Configuration =   1                                               *
********************************************************************************

  Formula = O9Sr3Ti3                                                    

  Number of irreducible atoms/shells =      15


  Total number atoms/shells =      15

  Dimensionality = 3               :  Bulk   



  Cartesian lattice vectors (Angstroms) :

        6.000000    0.000000    0.000000
        0.000000    6.000000    0.000000
        0.000000    0.000000   12.000000

  Cell parameters (Angstroms/Degrees):

  a =       6.0000    alpha =  90.0000
  b =       6.0000    beta  =  90.0000
  c =      12.0000    gamma =  90.0000

  Initial cell volume =         432.000000 Angs**3

  Temperature of configuration =  0.000     K 

  Pressure of configuration =         0.000 GPa 

  Fractional coordinates of asymmetric unit :

--------------------------------------------------------------------------------
   No.  Atomic       x           y          z         Charge      Occupancy
        Label      (Frac)      (Frac)     (Frac)        (e)         (Frac)  
--------------------------------------------------------------------------------
      1 O     c    0.000000    0.333330    0.833330    -2.00000    1.000000    
      2 O     c    0.666670 *  0.666670 *  0.000000 *  -2.00000    1.000000    
      3 O     c    0.333330 *  0.666670 *  0.166670 *  -2.00000    1.000000    
      4 O     c    0.333330 *  0.000000 *  0.166670 *  -2.00000    1.000000    
      5 O     c    0.333330 *  0.333330 *  0.166670 *  -2.00000    1.000000    
      6 O     c    0.333330 *  0.333330 *  0.833330 *  -2.00000    1.000000    
      7 O     c    0.333330 *  0.000000 *  0.500000 *  -2.00000    1.000000    
      8 O     c    0.666670 *  0.000000 *  0.000000 *  -2.00000    1.000000    
      9 O     c    0.666670 *  0.000000 *  0.166670 *  -2.00000    1.000000    
     10 Sr    c    0.500000 *  0.833330 *  0.916670 *   2.00000    1.000000    
     11 Sr    c    0.166670 *  0.500000 *  0.916670 *   2.00000    1.000000    
     12 Sr    c    0.166670 *  0.833330 *  0.416670 *   2.00000    1.000000    
     13 Ti    c    0.833330 *  0.500000 *  0.416670 *   4.00000    1.000000    
     14 Ti    c    0.166670 *  0.166670 *  0.916670 *   4.00000    1.000000    
     15 Ti    c    0.833330 *  0.833330 *  0.583330 *   4.00000    1.000000    
--------------------------------------------------------------------------------



********************************************************************************
*  General input information                                                   *
********************************************************************************

  Species output for all configurations : 

--------------------------------------------------------------------------------
  Species    Type    Atomic    Atomic    Charge       Radii (Angs)     Library
                     Number     Mass       (e)     Cova   Ionic  VDW   Symbol
--------------------------------------------------------------------------------
    O        Core        8      16.00  -2.000000   0.730  0.000  1.360          
    Sr       Core       38      87.62   2.000000   1.120  0.000  1.670          
    Ti       Core       22      47.88   4.000000   1.470  0.000  2.190          
--------------------------------------------------------------------------------


  Lattice summation method               =    Ewald          (3-D)
                                         =    Parry          (2-D)
                                         =    Saunders et al (1-D)
  Accuracy factor for lattice sums       =   12.000


  Time limit =      15.00 seconds

  Maximum range for interatomic potentials =    100000.000000 Angstroms

  General interatomic potentials :

--------------------------------------------------------------------------------
Atom  Types   Potential      Parameter       Value         Units   Cutoffs(Ang)
  1     2                                                            Min /  Max 
--------------------------------------------------------------------------------
O    c Sr   c Buckingham    Buckingham A     1952.3900    eV        0.000 10.000
                            Buckingham rho  0.33685000    Ang       
                            Buckingham C     19.220000    eV*Ang^6  
--------------------------------------------------------------------------------
O    c Ti   c Buckingham    Buckingham A     4590.7279    eV        0.000 10.000
                            Buckingham rho  0.26100000    Ang       
                            Buckingham C     0.0000000    eV*Ang^6  
--------------------------------------------------------------------------------
O    c O    c Buckingham    Buckingham A     1388.7700    eV        0.000 10.000
                            Buckingham rho  0.36262000    Ang       
                            Buckingham C     175.00000    eV*Ang^6  
--------------------------------------------------------------------------------
 Calling ------OPTIONS------

********************************************************************************
*  Output for configuration   1                                                *
********************************************************************************


  Components of energy : 

--------------------------------------------------------------------------------
  Interatomic potentials     =          86.73882635 eV    
  Monopole - monopole (real) =         -15.03500613 eV    
  Monopole - monopole (recip)=        -125.05826005 eV    
  Monopole - monopole (total)=        -140.09326618 eV    
--------------------------------------------------------------------------------
  Total lattice energy       =         -53.35443983 eV    
--------------------------------------------------------------------------------
  Total lattice energy       =           -5147.8878 kJ/(mole unit cells)
--------------------------------------------------------------------------------


  Number of variables =       48

  Maximum number of calculations  =          1000
  Maximum Hessian update interval =            10
  Maximum step size               =   1.000000000
  Maximum parameter tolerance     =   0.000010000
  Maximum function  tolerance     =   0.000010000
  Maximum gradient  tolerance     =   0.001000000
  Maximum gradient  component     =   0.010000000

  Cell parameters to be optimised using strains

  Newton-Raphson optimiser to be used

  BFGS hessian update to be used

  Lower half triangular hessian to be used

  Start of bulk optimisation :

  Cycle:      0 Energy:       -53.354440  Gnorm:     31.391907  CPU:    0.014
  ** Hessian calculated **
 ALPHA BEFORE:    1.0000000000000000     
 XC BEFORE:   0.66666999999995369     
  ** Opt : line minimisation
left   ...       0.00000000     -53.35443983
centre ...       0.25000000     -58.00157871
right  ...       0.50000000     -62.51862460

left   ...       0.00000000     -53.35443983
centre ...       0.25000000     -58.00157871
right  ...       0.50000000     -62.51862460
new    ...       1.50000000     -78.39515649

__s__    ...       1.00000000

left   ...       0.25000000     -58.00157871
centre ...       0.50000000     -62.51862460
right  ...       1.50000000     -78.39515649
new    ...       2.50000000     -87.52574197

__s__    ...       1.00000000

left   ...       0.50000000     -62.51862460
centre ...       1.50000000     -78.39515649
right  ...       2.50000000     -87.52574197
new    ...       3.35349215     -84.44808484

__s__    ...       0.85349215

left   ...       1.50000000     -78.39515649
centre ...       2.50000000     -87.52574197
right  ...       3.35349215     -84.44808484
new    ...       2.66436659     -87.94034992

__s__    ...      -0.68912555

left   ...       2.50000000     -87.52574197
centre ...       2.66436659     -87.94034992
right  ...       3.35349215     -84.44808484
new    ...       2.72400546     -87.98929276

__s__    ...       0.05963887

 ALPHA AFTER:    2.7240054626107124     
 XC AFTER:   0.55856282084781472     
 SANITY CHECK:    2.7240054626107164     
 DIRECTION dim            1  value   -3.9686843743891712E-002
 DIRECTION dim            2  value   -1.5526741928772493E-002
 DIRECTION dim            3  value   -7.1083847646265172E-003
 DIRECTION dim            4  value    2.4525013568847814E-003
 DIRECTION dim            5  value   -1.7230633684581548E-003
 DIRECTION dim            6  value   -1.1056892320399116E-002
 DIRECTION dim            7  value   -2.4470297870407911E-002
 DIRECTION dim            8  value    4.4957415915104779E-003
 DIRECTION dim            9  value   -3.4760092052007288E-003
 DIRECTION dim           10  value   -1.0279868532646286E-002
 DIRECTION dim           11  value    7.2453191864544980E-004
 DIRECTION dim           12  value   -6.5742262248367446E-003
 DIRECTION dim           13  value    1.6776902299094874E-002
 DIRECTION dim           14  value    4.4481016899959244E-003
 DIRECTION dim           15  value   -5.9867835709995982E-003
 DIRECTION dim           16  value   -5.3380212488767724E-002
 DIRECTION dim           17  value   -3.2821306586386496E-002
 DIRECTION dim           18  value    1.3960819330606211E-003
 DIRECTION dim           19  value   -1.2291562925739945E-002
 DIRECTION dim           20  value   -4.5272582884854995E-003
 DIRECTION dim           21  value   -1.5654119707851064E-002
 DIRECTION dim           22  value    5.1889553122407882E-003
 DIRECTION dim           23  value   -6.6816006372971233E-003
 DIRECTION dim           24  value   -1.5662178016738991E-003
 DIRECTION dim           25  value   -5.1228295514824301E-002
 DIRECTION dim           26  value   -1.1944473518527111E-002
 DIRECTION dim           27  value   -3.9299327276878099E-003
 DIRECTION dim           28  value    5.4389760231844438E-003
 DIRECTION dim           29  value    2.1994137800585719E-003
 DIRECTION dim           30  value    6.3092575879295067E-003
 DIRECTION dim           31  value   -3.6950245980319936E-002
 DIRECTION dim           32  value   -5.3655841985943510E-002
 DIRECTION dim           33  value   -7.6102900766667992E-003
 DIRECTION dim           34  value   -4.9075844568269432E-002
 DIRECTION dim           35  value   -2.4141327258683416E-002
 DIRECTION dim           36  value   -1.1674272453741511E-002
 DIRECTION dim           37  value    4.0356672154751878E-003
 DIRECTION dim           38  value    3.7548868504420885E-003
 DIRECTION dim           39  value    1.4284395488324223E-002
 DIRECTION dim           40  value   -8.0877080474622623E-002
 DIRECTION dim           41  value   -5.9960750653559715E-003
 DIRECTION dim           42  value    6.3089037883937887E-004
 DIRECTION dim           43  value   -8.8890772398717816E-002
 DIRECTION dim           44  value   -3.6738769503519460E-002
 DIRECTION dim           45  value   -5.3491578022969423E-002
 DIRECTION dim           46  value   -6.7635298156153364E-003
 DIRECTION dim           47  value    4.7554174927159736E-002
 DIRECTION dim           48  value   -1.7879331822599986E-002
  Cycle:      1 Energy:       -87.989293  Gnorm:     31.944337  CPU:    0.030
  ** Hessian calculated **
 ALPHA BEFORE:    1.0000000000000000     
 XC BEFORE:   0.55856282084781472     
  ** Opt : line minimisation
left   ...       0.00000000     -87.98929276
centre ...       0.25000000     -90.06918011
right  ...       0.50000000     -95.94136460

left   ...       0.00000000     -87.98929276
centre ...       0.25000000     -90.06918011
right  ...       0.50000000     -95.94136460
new    ...       1.00000000    -135.89943280

__s__    ...       0.50000000

left   ...       0.25000000     -90.06918011
centre ...       0.50000000     -95.94136460
right  ...       1.00000000    -135.89943280
new    ...       2.00000000    -200.35460608

__s__    ...       1.00000000

left   ...       0.50000000     -95.94136460
centre ...       1.00000000    -135.89943280
right  ...       2.00000000    -200.35460608
new    ...       3.00000000    -185.38793529

__s__    ...       1.00000000

left   ...       1.00000000    -135.89943280
centre ...       2.00000000    -200.35460608
right  ...       3.00000000    -185.38793529
new    ...       2.31155473      30.84979488

__s__    ...      -0.68844527

left   ...       1.00000000    -135.89943280
centre ...       2.00000000    -200.35460608
right  ...       2.31155473      30.84979488
new    ...       1.55240597    -219.45937426

__s__    ...      -0.75914876

left   ...       1.00000000    -135.89943280
centre ...       1.55240597    -219.45937426
right  ...       2.00000000    -200.35460608
new    ...       1.66616551    -233.89633588

__s__    ...       0.11375954

 ALPHA AFTER:    1.6661655135455342     
 XC AFTER:   0.57936766112995908     
 SANITY CHECK:    1.6661655135455402     
 DIRECTION dim            1  value    1.2486658806106485E-002
 DIRECTION dim            2  value   -6.9249017731117975E-003
 DIRECTION dim            3  value   -3.8954314293415241E-003
 DIRECTION dim            4  value    1.1202743021735215E-002
 DIRECTION dim            5  value   -1.2330680982695684E-003
 DIRECTION dim            6  value   -8.1000876801933606E-003
 DIRECTION dim            7  value   -2.0191625937368750E-002
 DIRECTION dim            8  value    9.2726472443794856E-004
 DIRECTION dim            9  value   -1.6117104404062004E-003
 DIRECTION dim           10  value    7.1913523234176857E-003
 DIRECTION dim           11  value    3.5995184126802286E-004
 DIRECTION dim           12  value   -2.1969477451739680E-003
 DIRECTION dim           13  value    8.5004935819351819E-003
 DIRECTION dim           14  value   -1.7234650400078613E-002
 DIRECTION dim           15  value   -6.3625289178445305E-003
 DIRECTION dim           16  value   -7.4002936197459139E-003
 DIRECTION dim           17  value    1.0002016007950461E-003
 DIRECTION dim           18  value    3.0174229455650378E-003
 DIRECTION dim           19  value    2.0684583607575396E-002
 DIRECTION dim           20  value    7.2350975020342712E-003
 DIRECTION dim           21  value   -7.2383561059010983E-003
 DIRECTION dim           22  value    1.0739528409468645E-002
 DIRECTION dim           23  value   -1.4284889038861456E-002
 DIRECTION dim           24  value   -2.8052731253490292E-002
 DIRECTION dim           25  value   -4.7060765852868546E-003
 DIRECTION dim           26  value    1.0320511148585267E-003
 DIRECTION dim           27  value    7.6361939326401412E-004
 DIRECTION dim           28  value   -5.5366260851699546E-003
 DIRECTION dim           29  value    5.0684078470378180E-003
 DIRECTION dim           30  value    5.5499563232060565E-003
 DIRECTION dim           31  value    6.5001009823952268E-003
 DIRECTION dim           32  value    1.3942139245180520E-003
 DIRECTION dim           33  value   -3.2748802391429174E-002
 DIRECTION dim           34  value  -0.18425099556118574     
 DIRECTION dim           35  value   -5.3168498143797843E-002
 DIRECTION dim           36  value    2.3170867556167676E-002
 DIRECTION dim           37  value   -4.3750565783944638E-003
 DIRECTION dim           38  value   -1.5805016646569592E-003
 DIRECTION dim           39  value    9.9334585911081616E-003
 DIRECTION dim           40  value    5.9581035519421710E-003
 DIRECTION dim           41  value    2.0873079659154109E-002
 DIRECTION dim           42  value  -0.20565691831653204     
 DIRECTION dim           43  value    2.1251135117207737E-002
 DIRECTION dim           44  value    3.5155575394718537E-002
 DIRECTION dim           45  value   -1.6942022596866831E-002
 DIRECTION dim           46  value   -4.2212784146150616E-002
 DIRECTION dim           47  value    8.5103410256844019E-003
 DIRECTION dim           48  value   -1.8442012068829568E-002
  Cycle:      2 Energy:      -233.896336  Gnorm:     17.894640  CPU:    0.048
  ** Hessian calculated **
 ALPHA BEFORE:    1.0000000000000000     
 XC BEFORE:   0.57936766112995908     
  ** Opt : line minimisation
left   ...       0.00000000    -233.89633588
centre ...       0.25000000    -214.82561053
right  ...      -0.25000000    -262.82638815

left   ...      -0.25000000    -262.82638815
centre ...       0.00000000    -233.89633588
right  ...       0.25000000    -214.82561053
new    ...      -0.75000000    -280.23507885

__s__    ...      -0.50000000

left   ...      -0.75000000    -280.23507885
centre ...      -0.25000000    -262.82638815
right  ...       0.00000000    -233.89633588
new    ...      -0.66138519    -281.98145713

__s__    ...       0.08861481

left   ...      -0.75000000    -280.23507885
centre ...      -0.66138519    -281.98145713
right  ...      -0.25000000    -262.82638815
new    ...      -0.63134691    -281.41536998

__s__    ...       0.03003828

left   ...      -0.75000000    -280.23507885
centre ...      -0.66138519    -281.98145713
right  ...      -0.63134691    -281.41536998
new    ...      -0.67536609    -282.03795197

__s__    ...      -0.04401918

left   ...      -0.75000000    -280.23507885
centre ...      -0.67536609    -282.03795197
right  ...      -0.66138519    -281.98145713
new    ...      -0.67472523    -282.03824814

__s__    ...       0.00064086

 ALPHA AFTER:   0.67472522996488116     
 XC AFTER:   0.57436168007773913     
 SANITY CHECK:   0.67472522996488515     
 DIRECTION dim            1  value   -7.4192883708831675E-003
 DIRECTION dim            2  value    2.4856123430052317E-003
 DIRECTION dim            3  value    3.3466476880322921E-003
 DIRECTION dim            4  value   -7.3717503576102884E-003
 DIRECTION dim            5  value   -6.1457349205718589E-004
 DIRECTION dim            6  value   0.42532151664302570     
 DIRECTION dim            7  value    8.7432380966484726E-003
 DIRECTION dim            8  value    6.3457818436163957E-004
 DIRECTION dim            9  value    3.1567393107896700E-003
 DIRECTION dim           10  value   -3.0966769009378491E-003
 DIRECTION dim           11  value    1.0281966666320426E-004
 DIRECTION dim           12  value    3.7523755054622234E-003
 DIRECTION dim           13  value   -1.7061862686709158E-003
 DIRECTION dim           14  value    1.0479293733639324E-002
 DIRECTION dim           15  value    6.3394848665620689E-003
 DIRECTION dim           16  value  -0.11061531872179253     
 DIRECTION dim           17  value    3.7963591494979249E-003
 DIRECTION dim           18  value    2.0364012996693902E-003
 DIRECTION dim           19  value    3.0542406771961406E-002
 DIRECTION dim           20  value   -3.4926493684846430E-003
 DIRECTION dim           21  value    2.9162071792720426E-003
 DIRECTION dim           22  value   -5.6366887266686143E-002
 DIRECTION dim           23  value   -2.6581026517646226E-003
 DIRECTION dim           24  value   -4.0310349029246253E-004
 DIRECTION dim           25  value    6.8828006616637727E-004
 DIRECTION dim           26  value   -3.8415772441939918E-004
 DIRECTION dim           27  value    1.8570114554552156E-003
 DIRECTION dim           28  value    1.0308753167514854E-003
 DIRECTION dim           29  value   -1.8493921062392813E-003
 DIRECTION dim           30  value   -9.4085638284403079E-004
 DIRECTION dim           31  value    8.0335223645652701E-004
 DIRECTION dim           32  value   -7.0629876563850144E-004
 DIRECTION dim           33  value    5.1214654056216530E-003
 DIRECTION dim           34  value    5.0592352504462068E-003
 DIRECTION dim           35  value    7.0019066707468431E-003
 DIRECTION dim           36  value    6.3885595377090798E-004
 DIRECTION dim           37  value    1.9231933971447885E-003
 DIRECTION dim           38  value    1.7736068258634749E-004
 DIRECTION dim           39  value   -3.4487988385258523E-004
 DIRECTION dim           40  value   -1.1178833121456521E-002
 DIRECTION dim           41  value    8.1974799040247055E-004
 DIRECTION dim           42  value    8.6715408400139771E-004
 DIRECTION dim           43  value   -7.5441890079860820E-003
 DIRECTION dim           44  value   -1.5238048200445596E-002
 DIRECTION dim           45  value    5.1566882641961723E-003
 DIRECTION dim           46  value    5.7552344647863254E-003
 DIRECTION dim           47  value    2.7254626502346772E-002
 DIRECTION dim           48  value   -1.7563470749206653E-002
  Cycle:      3 Energy:      -282.038248  Gnorm:     13.505435  CPU:    0.065
  ** Hessian calculated **
 ALPHA BEFORE:    1.0000000000000000     
 XC BEFORE:   0.57436168007773913     
  ** Opt : line minimisation
left   ...       0.00000000    -282.03824814
centre ...       0.25000000    -292.47118835
right  ...       0.50000000    -301.88834593

left   ...       0.00000000    -282.03824814
centre ...       0.25000000    -292.47118835
right  ...       0.50000000    -301.88834593
new    ...       1.50000000    -301.15799340

__s__    ...       1.00000000

left   ...       0.25000000    -292.47118835
centre ...       0.50000000    -301.88834593
right  ...       1.50000000    -301.15799340
new    ...       0.98811244    -312.76485502

__s__    ...      -0.51188756

left   ...       0.50000000    -301.88834593
centre ...       0.98811244    -312.76485502
right  ...       1.50000000    -301.15799340
new    ...       0.99187729    -312.78632455

__s__    ...       0.00376485

 ALPHA AFTER:   0.99187728704948153     
 XC AFTER:   0.62951961830966718     
 SANITY CHECK:   0.99187728704948042     
 DIRECTION dim            1  value    5.5609639369810934E-002
 DIRECTION dim            2  value   -1.9983281927468594E-002
 DIRECTION dim            3  value    3.9884163700251017E-002
 DIRECTION dim            4  value   0.21872577382225872     
 DIRECTION dim            5  value   -6.6930540243100065E-002
 DIRECTION dim            6  value    5.6536950084213972E-002
 DIRECTION dim            7  value    4.9095763718429664E-002
 DIRECTION dim            8  value  -0.13080915917135241     
 DIRECTION dim            9  value    3.4348391749242806E-002
 DIRECTION dim           10  value    8.8431038981849661E-002
 DIRECTION dim           11  value   -9.7246191024443318E-002
 DIRECTION dim           12  value    3.9837118622033353E-002
 DIRECTION dim           13  value   -5.5519132072492546E-002
 DIRECTION dim           14  value   -4.5543166560451376E-002
 DIRECTION dim           15  value    4.7832212131207322E-002
 DIRECTION dim           16  value   0.25874644594103163     
 DIRECTION dim           17  value   -3.4275708806230799E-002
 DIRECTION dim           18  value    4.1604343820155411E-002
 DIRECTION dim           19  value   -2.1452226083039073E-002
 DIRECTION dim           20  value    5.0471555874991698E-002
 DIRECTION dim           21  value    9.0592763189083058E-003
 DIRECTION dim           22  value    8.7330050351955554E-002
 DIRECTION dim           23  value   -2.9463196815785707E-002
 DIRECTION dim           24  value    3.3783142080549645E-002
 DIRECTION dim           25  value    7.6793124550669306E-002
 DIRECTION dim           26  value   -1.0582141017817136E-002
 DIRECTION dim           27  value    1.2347612105928161E-002
 DIRECTION dim           28  value   -5.3560613964460041E-003
 DIRECTION dim           29  value    3.8212790281235864E-002
 DIRECTION dim           30  value    2.1435705024919913E-002
 DIRECTION dim           31  value   0.25738317228359792     
 DIRECTION dim           32  value   -5.4479970633520718E-002
 DIRECTION dim           33  value    1.6828623837416520E-003
 DIRECTION dim           34  value   0.18532488742163783     
 DIRECTION dim           35  value   -8.3266383894278234E-002
 DIRECTION dim           36  value    4.7217193497763571E-002
 DIRECTION dim           37  value    6.7999393342131013E-003
 DIRECTION dim           38  value   -1.0441915976137375E-002
 DIRECTION dim           39  value    1.5012119195369725E-002
 DIRECTION dim           40  value   0.16719284416189051     
 DIRECTION dim           41  value   -5.1282917289590876E-002
 DIRECTION dim           42  value    4.6286559559399122E-002
 DIRECTION dim           43  value    6.9506124471406971E-002
 DIRECTION dim           44  value    7.1420364769632383E-004
 DIRECTION dim           45  value  -0.15637557743137168     
 DIRECTION dim           46  value   -3.7095683753815565E-003
 DIRECTION dim           47  value  -0.25638211385267046     
 DIRECTION dim           48  value    9.6516863685258997E-002
  Cycle:      4 Energy:      -312.786325  Gnorm:     13.273913  CPU:    0.075
  ** Hessian calculated **
 ALPHA BEFORE:    1.0000000000000000     
 XC BEFORE:   0.62951961830966718     
  ** Opt : line minimisation
left   ...       0.00000000    -312.78632455
centre ...       0.25000000    -322.38749712
right  ...       0.50000000    -328.78348039

left   ...       0.00000000    -312.78632455
centre ...       0.25000000    -322.38749712
right  ...       0.50000000    -328.78348039
new    ...       0.87387719    -324.28252365

__s__    ...       0.37387719

left   ...       0.25000000    -322.38749712
centre ...       0.50000000    -328.78348039
right  ...       0.87387719    -324.28252365
new    ...       0.58712332    -329.63890741

__s__    ...      -0.28675386

left   ...       0.50000000    -328.78348039
centre ...       0.58712332    -329.63890741
right  ...       0.87387719    -324.28252365
new    ...       0.60796877    -329.69965443

__s__    ...       0.02084545

 ALPHA AFTER:   0.60796877185590836     
 XC AFTER:   0.80455084536793720     
 SANITY CHECK:   0.60796877185590825     
 DIRECTION dim            1  value   0.28789509455224671     
 DIRECTION dim            2  value   -4.9848194541340964E-002
 DIRECTION dim            3  value   0.17512154782191808     
 DIRECTION dim            4  value   0.28783047540317358     
 DIRECTION dim            5  value   -1.9055242446758328E-002
 DIRECTION dim            6  value    5.7398780330381413E-002
 DIRECTION dim            7  value   0.24419251806240780     
 DIRECTION dim            8  value   -1.3846699780253980E-002
 DIRECTION dim            9  value    6.9647822264450061E-003
 DIRECTION dim           10  value   0.15659863452752606     
 DIRECTION dim           11  value    2.9857011755994891E-002
 DIRECTION dim           12  value    8.9596450912664785E-002
 DIRECTION dim           13  value    3.5114992369908206E-002
 DIRECTION dim           14  value   -2.4626191242039273E-002
 DIRECTION dim           15  value    1.5876843596016440E-003
 DIRECTION dim           16  value   0.31073307477419704     
 DIRECTION dim           17  value   -5.7936941988357719E-003
 DIRECTION dim           18  value    2.5380717986948610E-002
 DIRECTION dim           19  value   0.11245485353862063     
 DIRECTION dim           20  value    6.5011406528370660E-002
 DIRECTION dim           21  value    8.8104863188417731E-002
 DIRECTION dim           22  value   0.19098774312816494     
 DIRECTION dim           23  value    3.4865658797073484E-002
 DIRECTION dim           24  value   0.12628131149243418     
 DIRECTION dim           25  value   0.25840300359714213     
 DIRECTION dim           26  value   -3.8330736103635674E-002
 DIRECTION dim           27  value   0.15133267065092959     
 DIRECTION dim           28  value   0.12125078745735593     
 DIRECTION dim           29  value   -1.3076045322430344E-002
 DIRECTION dim           30  value   -3.4338016696519058E-003
 DIRECTION dim           31  value   0.23682501194775718     
 DIRECTION dim           32  value   -3.6488658461492447E-003
 DIRECTION dim           33  value    2.3603931612727027E-002
 DIRECTION dim           34  value   0.35163650653051615     
 DIRECTION dim           35  value    3.3042530725763505E-002
 DIRECTION dim           36  value    8.6715053374850415E-002
 DIRECTION dim           37  value   0.12543134123042024     
 DIRECTION dim           38  value    5.2545702279785137E-003
 DIRECTION dim           39  value    6.1005000724243551E-002
 DIRECTION dim           40  value   0.23104288555029595     
 DIRECTION dim           41  value    3.0619879947760758E-002
 DIRECTION dim           42  value   0.14629833148518415     
 DIRECTION dim           43  value  -0.10988950727372532     
 DIRECTION dim           44  value    6.3685835647628752E-002
 DIRECTION dim           45  value   -5.2594429781539699E-002
 DIRECTION dim           46  value    6.2293711476948697E-002
 DIRECTION dim           47  value  -0.34851880906335714     
 DIRECTION dim           48  value   -3.8506542067229761E-002
  Cycle:      5 Energy:      -329.699654  Gnorm:     15.064958  CPU:    0.083
  ** Hessian calculated **
 ALPHA BEFORE:    1.0000000000000000     
 XC BEFORE:   0.80455084536793720     
  ** Opt : line minimisation
left   ...       0.00000000    -329.69965443
centre ...       0.25000000   -8006.13352726
right  ...       0.50000000    -345.12809105

left   ...       0.00000000    -329.69965443
centre ...       0.25000000   -8006.13352726
right  ...       0.50000000    -345.12809105
new    ...       0.25012574   -8037.94515433

__s__    ...      -0.24987426

left   ...       0.25000000   -8006.13352726
centre ...       0.25012574   -8037.94515433
right  ...       0.50000000    -345.12809105
new    ...       0.36150180    -957.34628299

__s__    ...       0.11137606

left   ...       0.25000000   -8006.13352726
centre ...       0.25012574   -8037.94515433
right  ...       0.36150180    -957.34628299
new    ...       0.29461769  -11138.41117790

__s__    ...      -0.06688411

left   ...       0.25012574   -8037.94515433
centre ...       0.29461769  -11138.41117790
right  ...       0.36150180    -957.34628299
new    ...       0.28985968  -12091.58788282

__s__    ...      -0.00475801

left   ...       0.25012574   -8037.94515433
centre ...       0.28985968  -12091.58788282
right  ...       0.29461769  -11138.41117790
new    ...       0.27749898  -13110.97743946

__s__    ...      -0.01236070

left   ...       0.25012574   -8037.94515433
centre ...       0.27749898  -13110.97743946
right  ...       0.28985968  -12091.58788282
new    ...       0.27756117  -13112.19099976

__s__    ...       0.00006219

 ALPHA AFTER:   0.27756117334359109     
 XC AFTER:   0.82157590678500847     
 SANITY CHECK:   0.27756117334359187     
 DIRECTION dim            1  value    6.1338051039278536E-002
 DIRECTION dim            2  value   -8.7896385456340334E-003
 DIRECTION dim            3  value  -0.17081626714669343     
 DIRECTION dim            4  value    5.3292263077343367E-002
 DIRECTION dim            5  value   -3.3183097467713155E-002
 DIRECTION dim            6  value    2.7720146901473449E-002
 DIRECTION dim            7  value   -1.7291205853707293E-002
 DIRECTION dim            8  value   -1.2795416545356407E-003
 DIRECTION dim            9  value    4.8254995510498069E-003
 DIRECTION dim           10  value   -1.3998670393746587E-002
 DIRECTION dim           11  value    1.0297198986436188E-002
 DIRECTION dim           12  value    1.2882700074420907E-002
 DIRECTION dim           13  value    7.3793386043414762E-003
 DIRECTION dim           14  value   -6.0295336843171968E-003
 DIRECTION dim           15  value   -1.5358504306033867E-002
 DIRECTION dim           16  value    2.9101370531318942E-002
 DIRECTION dim           17  value    2.4282410043193217E-002
 DIRECTION dim           18  value    2.6035929072427033E-003
 DIRECTION dim           19  value   -5.7041603083832944E-002
 DIRECTION dim           20  value    5.1977572443221241E-003
 DIRECTION dim           21  value   -2.3071507240556333E-002
 DIRECTION dim           22  value   -1.4701177959153848     
 DIRECTION dim           23  value    1.0081385448411820E-002
 DIRECTION dim           24  value   -3.6038291288736067E-004
 DIRECTION dim           25  value    1.6396592051835567E-003
 DIRECTION dim           26  value    6.9771702066170772E-003
 DIRECTION dim           27  value   -2.4609759145853005E-002
 DIRECTION dim           28  value    1.0069592799571861E-002
 DIRECTION dim           29  value    1.2945028406327302E-002
 DIRECTION dim           30  value   0.12786458211520696     
 DIRECTION dim           31  value   -4.4776633180794237E-002
 DIRECTION dim           32  value    3.0313760757622769E-002
 DIRECTION dim           33  value   -3.0760475608685302E-002
 DIRECTION dim           34  value   -2.6696179391004500E-002
 DIRECTION dim           35  value   -2.8004864597307899E-003
 DIRECTION dim           36  value  -0.13106879939520430     
 DIRECTION dim           37  value   -1.6833840973130866E-003
 DIRECTION dim           38  value   -7.3665902069243597E-003
 DIRECTION dim           39  value    1.4900079597584184E-004
 DIRECTION dim           40  value    2.0141725912944726E-002
 DIRECTION dim           41  value   -9.7100356782735802E-003
 DIRECTION dim           42  value    4.2032321233686169E-003
 DIRECTION dim           43  value    9.1851745548185565E-002
 DIRECTION dim           44  value    6.8187085756177060E-002
 DIRECTION dim           45  value    3.1938418121864348E-002
 DIRECTION dim           46  value   -2.2722972772731029E-002
 DIRECTION dim           47  value    6.6063420689799549E-002
 DIRECTION dim           48  value   -7.9758994983937515E-002
  Cycle:      6 Energy:    -13112.191000  Gnorm:  28641.730181  CPU:    0.093
  ** Hessian calculated **
 ALPHA BEFORE:    1.0000000000000000     
 XC BEFORE:   0.82157590678500847     
  ** Opt : line minimisation
left   ...       0.00000000  -13112.19099976
centre ...       0.25000000   -6023.64809030
right  ...      -0.25000000    -249.91629155

left   ...      -0.25000000    -249.91629155
centre ...       0.00000000  -13112.19099976
right  ...       0.25000000   -6023.64809030
new    ...       0.03617478  -15455.20975523

__s__    ...       0.28617478

left   ...       0.00000000  -13112.19099976
centre ...       0.03617478  -15455.20975523
right  ...       0.25000000   -6023.64809030
new    ...       0.09244735  -13881.24028838

__s__    ...       0.05627257

left   ...       0.00000000  -13112.19099976
centre ...       0.03617478  -15455.20975523
right  ...       0.09244735  -13881.24028838
new    ...       0.05036995  -15562.12897432

__s__    ...      -0.04207741

left   ...       0.03617478  -15455.20975523
centre ...       0.05036995  -15562.12897432
right  ...       0.09244735  -13881.24028838
new    ...       0.04773586  -15575.09637988

__s__    ...      -0.00263409

left   ...       0.03617478  -15455.20975523
centre ...       0.04773586  -15575.09637988
right  ...       0.05036995  -15562.12897432
new    ...       0.04676811  -15576.25256219

__s__    ...      -0.00096775

left   ...       0.03617478  -15455.20975523
centre ...       0.04676811  -15576.25256219
right  ...       0.04773586  -15575.09637988
new    ...       0.04670479  -15576.25959143

__s__    ...      -0.00006332

 ALPHA AFTER:    4.6704794882091762E-002
 XC AFTER:   0.82483974222641510     
 SANITY CHECK:    4.6704794882089368E-002
 DIRECTION dim            1  value    6.9882234782242050E-002
 DIRECTION dim            2  value   -1.6401864431374154E-002
 DIRECTION dim            3  value  -0.35067655045686574     
 DIRECTION dim            4  value   0.17986477937098244     
 DIRECTION dim            5  value   -3.5581947139717740E-002
 DIRECTION dim            6  value   -1.2500576027555671E-002
 DIRECTION dim            7  value    2.5822106325111421E-003
 DIRECTION dim            8  value   -1.3268140806605313E-002
 DIRECTION dim            9  value   0.14506378553802463     
 DIRECTION dim           10  value   -3.4200274456099196E-003
 DIRECTION dim           11  value    7.1309827094719225E-002
 DIRECTION dim           12  value    4.0203984934333595E-002
 DIRECTION dim           13  value    1.1646025708375463E-002
 DIRECTION dim           14  value   -1.2450321072312824E-002
 DIRECTION dim           15  value   -4.7530754971869003E-002
 DIRECTION dim           16  value    6.7181153715375211E-002
 DIRECTION dim           17  value    7.0681210788209353E-002
 DIRECTION dim           18  value    4.0583694905912378E-003
 DIRECTION dim           19  value   0.63344373292405021     
 DIRECTION dim           20  value   -2.4152062645804918E-002
 DIRECTION dim           21  value    5.5793345259862702E-002
 DIRECTION dim           22  value   -2.5805165642537866E-003
 DIRECTION dim           23  value    1.3269326224461128E-002
 DIRECTION dim           24  value  -0.14514292368567577     
 DIRECTION dim           25  value   -2.8378112842783023E-003
 DIRECTION dim           26  value    3.1159200074058400E-002
 DIRECTION dim           27  value  -0.10448066828698059     
 DIRECTION dim           28  value   -3.7348215725013560E-002
 DIRECTION dim           29  value    3.9507613488567531E-002
 DIRECTION dim           30  value    9.2581731107549692E-003
 DIRECTION dim           31  value  -0.12296569271419942     
 DIRECTION dim           32  value    9.1005655351674179E-004
 DIRECTION dim           33  value   -1.4927328351190554E-002
 DIRECTION dim           34  value  -0.14990651762444807     
 DIRECTION dim           35  value   -1.4862302389550660E-002
 DIRECTION dim           36  value    1.0600246066541577     
 DIRECTION dim           37  value    7.8295891200155732E-002
 DIRECTION dim           38  value   -3.6618680400311909E-002
 DIRECTION dim           39  value   -5.3920392628941504E-003
 DIRECTION dim           40  value   0.18415186446418011     
 DIRECTION dim           41  value    3.0642276921129662E-002
 DIRECTION dim           42  value   0.19738117619593235     
 DIRECTION dim           43  value  -0.44886315275248329     
 DIRECTION dim           44  value   0.21608799616187205     
 DIRECTION dim           45  value   -1.3214367065216754     
 DIRECTION dim           46  value   0.63390745403703852     
 DIRECTION dim           47  value  -0.67847591090499892     
 DIRECTION dim           48  value  -0.33475780354683538     
  Cycle:      7 Energy:    -15576.259591  Gnorm:  34788.537729  CPU:    0.105
  ** Hessian calculated **
 ALPHA BEFORE:    1.0000000000000000     
 XC BEFORE:   0.82483974222641510     
  ** Opt : line minimisation
left   ...       0.00000000  -15576.25959143
centre ...       0.25000000  -10814.72352336
right  ...      -0.25000000  -10957.50237290

left   ...      -0.25000000  -10957.50237290
centre ...       0.00000000  -15576.25959143
right  ...       0.25000000  -10814.72352336
new    ...      -0.00190264  -15578.64360079

__s__    ...       0.24809736

left   ...      -0.25000000  -10957.50237290
centre ...      -0.00190264  -15578.64360079
right  ...       0.00000000  -15576.25959143
new    ...      -0.00883010  -15581.68748947

__s__    ...      -0.00692746

left   ...      -0.25000000  -10957.50237290
centre ...      -0.00883010  -15581.68748947
right  ...      -0.00190264  -15578.64360079
new    ...      -0.00814541  -15581.78143135

__s__    ...       0.00068469

 ALPHA AFTER:    8.1454129523708535E-003
 XC AFTER:   0.82446762065788370     
 SANITY CHECK:    8.1454129523692818E-003
 DIRECTION dim            1  value   -4.5684800845259971E-002
 DIRECTION dim            2  value    1.0831469816736616E-002
 DIRECTION dim            3  value   0.30607682609508313     
 DIRECTION dim            4  value  -0.15540529600153455     
 DIRECTION dim            5  value    3.6881906024291505E-002
 DIRECTION dim            6  value   -2.0479439756101645E-002
 DIRECTION dim            7  value   -8.0037087162538774E-003
 DIRECTION dim            8  value    1.1508523127985013E-002
 DIRECTION dim            9  value   -7.6392361894123979E-003
 DIRECTION dim           10  value   -5.4663666853015963E-002
 DIRECTION dim           11  value   -6.6839918893791733E-002
 DIRECTION dim           12  value   -4.6729460450791759E-002
 DIRECTION dim           13  value   -1.5595414336484554E-002
 DIRECTION dim           14  value   -9.5252720322049258E-003
 DIRECTION dim           15  value    4.9320990003358885E-002
 DIRECTION dim           16  value   -7.6227253042236140E-002
 DIRECTION dim           17  value   -6.4424480739537965E-002
 DIRECTION dim           18  value   -3.2482390183089266E-002
 DIRECTION dim           19  value  -0.23550506051244816     
 DIRECTION dim           20  value    3.1290084693042793E-002
 DIRECTION dim           21  value   -3.6866272134928234E-002
 DIRECTION dim           22  value    8.0000153912253603E-003
 DIRECTION dim           23  value   -1.1508865632094986E-002
 DIRECTION dim           24  value    7.6431023920265871E-003
 DIRECTION dim           25  value    3.1247480711973801E-003
 DIRECTION dim           26  value   -3.3479360499248309E-002
 DIRECTION dim           27  value    9.5792690425756527E-002
 DIRECTION dim           28  value    2.9074512772500932E-003
 DIRECTION dim           29  value   -3.9132124052820932E-002
 DIRECTION dim           30  value   -2.4674508135162972E-002
 DIRECTION dim           31  value   0.13631677563856898     
 DIRECTION dim           32  value    8.0630362850081030E-003
 DIRECTION dim           33  value   -5.1779713654316205E-004
 DIRECTION dim           34  value    9.7814458231644114E-002
 DIRECTION dim           35  value    1.9899914024732530E-002
 DIRECTION dim           36  value   -6.8999995554998209E-002
 DIRECTION dim           37  value    1.5397633063455806E-002
 DIRECTION dim           38  value    4.1031183281508399E-002
 DIRECTION dim           39  value   -1.7365544848507832E-003
 DIRECTION dim           40  value  -0.21495584843739934     
 DIRECTION dim           41  value   -6.7765389835764064E-002
 DIRECTION dim           42  value    1.9318890148308974E-002
 DIRECTION dim           43  value   0.48844321224097442     
 DIRECTION dim           44  value  -0.17812587559340001     
 DIRECTION dim           45  value   0.47493479041726067     
 DIRECTION dim           46  value   0.65191858398752212     
 DIRECTION dim           47  value    1.1386843209301540     
 DIRECTION dim           48  value   0.45951122074654616     
  Cycle:      8 Energy:    -15581.781431  Gnorm:  34781.812450  CPU:    0.115
  ** Hessian calculated **
 ALPHA BEFORE:    1.0000000000000000     
 XC BEFORE:   0.82446762065788370     
  ** Opt : line minimisation
left   ...       0.00000000  -15581.78143135
centre ...       0.25000000  -11108.91937230
right  ...      -0.25000000   -9639.87946178

left   ...      -0.25000000   -9639.87946178
centre ...       0.00000000  -15581.78143135
right  ...       0.25000000  -11108.91937230
new    ...       0.01763170  -15612.12911318

__s__    ...       0.26763170

left   ...       0.00000000  -15581.78143135
centre ...       0.01763170  -15612.12911318
right  ...       0.25000000  -11108.91937230
new    ...       0.01901214  -15611.73618515

__s__    ...       0.00138044

 ALPHA AFTER:    1.7631699413392932E-002
 XC AFTER:   0.82535243729669838     
 SANITY CHECK:    1.7631699413392272E-002
 DIRECTION dim            1  value    5.0183287388770370E-002
 DIRECTION dim            2  value   -1.1969228765289757E-002
 DIRECTION dim            3  value  -0.29106703487632579     
 DIRECTION dim            4  value   0.15400778161986814     
 DIRECTION dim            5  value   -3.6432185211893446E-002
 DIRECTION dim            6  value    1.6825213212071862E-002
 DIRECTION dim            7  value    8.8944229300631263E-003
 DIRECTION dim            8  value   -1.1550972084835033E-002
 DIRECTION dim            9  value    8.6247870204149164E-003
 DIRECTION dim           10  value   -2.3063826600460248E-003
 DIRECTION dim           11  value    6.7286767098831773E-002
 DIRECTION dim           12  value    4.9367624038618468E-002
 DIRECTION dim           13  value    1.6493525693358678E-002
 DIRECTION dim           14  value    1.2523347460897344E-002
 DIRECTION dim           15  value   -4.8137297368385089E-002
 DIRECTION dim           16  value    6.8501866169126568E-002
 DIRECTION dim           17  value    6.7065824057669282E-002
 DIRECTION dim           18  value    3.1293260923319986E-002
 DIRECTION dim           19  value   0.24223208944310765     
 DIRECTION dim           20  value   -3.1323531278484078E-002
 DIRECTION dim           21  value    3.3997724854083811E-002
 DIRECTION dim           22  value   -8.8913996262399882E-003
 DIRECTION dim           23  value    1.1551333684796765E-002
 DIRECTION dim           24  value   -8.6286755690254957E-003
 DIRECTION dim           25  value   -3.8475059234111030E-003
 DIRECTION dim           26  value    3.3716562454628889E-002
 DIRECTION dim           27  value   -9.7172146568268294E-002
 DIRECTION dim           28  value   -8.4877122684469900E-003
 DIRECTION dim           29  value    3.8696694225360408E-002
 DIRECTION dim           30  value    2.3558634969375773E-002
 DIRECTION dim           31  value  -0.13568639355009707     
 DIRECTION dim           32  value   -1.0064866165486012E-002
 DIRECTION dim           33  value   -6.8837964822504518E-004
 DIRECTION dim           34  value  -0.10340908746440777     
 DIRECTION dim           35  value   -1.9100688899428717E-002
 DIRECTION dim           36  value    8.9906306394979679E-002
 DIRECTION dim           37  value   -9.4005729586349712E-003
 DIRECTION dim           38  value   -4.0452310181186203E-002
 DIRECTION dim           39  value    3.2691977097242856E-003
 DIRECTION dim           40  value   0.23345972228405004     
 DIRECTION dim           41  value    6.3129055108038581E-002
 DIRECTION dim           42  value   -2.7506083451488802E-002
 DIRECTION dim           43  value  -0.49728096506968661     
 DIRECTION dim           44  value   0.17923717189838639     
 DIRECTION dim           45  value  -0.48923137960176405     
 DIRECTION dim           46  value  -0.73138210232755430     
 DIRECTION dim           47  value   -1.1702014258430147     
 DIRECTION dim           48  value  -0.49801905859353596     
  Cycle:      9 Energy:    -15612.129113  Gnorm:  34914.043782  CPU:    0.124
  ** Hessian calculated **
 ALPHA BEFORE:    1.0000000000000000     
 XC BEFORE:   0.82535243729669838     
  ** Opt : line minimisation
left   ...       0.00000000  -15612.12911318
centre ...       0.25000000  -10529.99837738
right  ...      -0.25000000  -12734.97455124

left   ...      -0.25000000  -12734.97455124
centre ...       0.00000000  -15612.12911318
right  ...       0.25000000  -10529.99837738
new    ...      -0.03462899  -15766.56578958

__s__    ...       0.21537101

left   ...      -0.25000000  -12734.97455124
centre ...      -0.03462899  -15766.56578958
right  ...       0.00000000  -15612.12911318
new    ...      -0.04738961  -15776.16463031

__s__    ...      -0.01276062

left   ...      -0.25000000  -12734.97455124
centre ...      -0.04738961  -15776.16463031
right  ...      -0.03462899  -15766.56578958
new    ...      -0.04614838  -15776.37013131

__s__    ...       0.00124123

 ALPHA AFTER:    4.6148384572752492E-002
 XC AFTER:   0.82350425297191010     
 SANITY CHECK:    4.6148384572753914E-002
 DIRECTION dim            1  value   -4.0048732840790566E-002
 DIRECTION dim            2  value    9.2532466572395455E-003
 DIRECTION dim            3  value   0.33106086958732722     
 DIRECTION dim            4  value  -0.15718007424377481     
 DIRECTION dim            5  value    3.7574786461841952E-002
 DIRECTION dim            6  value   -2.8272964682401359E-002
 DIRECTION dim            7  value   -6.9138151895570057E-003
 DIRECTION dim            8  value    1.1452381189198330E-002
 DIRECTION dim            9  value   -6.3816321487903480E-003
 DIRECTION dim           10  value   0.19874910720994157     
 DIRECTION dim           11  value   -6.6691634295191121E-002
 DIRECTION dim           12  value   -4.3864540006234583E-002
 DIRECTION dim           13  value   -1.4487738539857664E-002
 DIRECTION dim           14  value   -6.0642492388146710E-003
 DIRECTION dim           15  value    5.0657911770811151E-002
 DIRECTION dim           16  value   -8.7094817707912928E-002
 DIRECTION dim           17  value   -6.1209377310588710E-002
 DIRECTION dim           18  value   -3.4021536405528109E-002
 DIRECTION dim           19  value  -0.22632520880195875     
 DIRECTION dim           20  value    3.1040843868098158E-002
 DIRECTION dim           21  value   -4.0296563337597013E-002
 DIRECTION dim           22  value    6.9093185528305906E-003
 DIRECTION dim           23  value   -1.1452699424612781E-002
 DIRECTION dim           24  value    6.3854626979796391E-003
 DIRECTION dim           25  value    1.8968064369997290E-003
 DIRECTION dim           26  value   -3.3118816111450830E-002
 DIRECTION dim           27  value    9.3955504805516135E-002
 DIRECTION dim           28  value   -4.7032230981039697E-003
 DIRECTION dim           29  value   -3.9864326946371501E-002
 DIRECTION dim           30  value   -2.6710585073561853E-002
 DIRECTION dim           31  value   0.13676564407965647     
 DIRECTION dim           32  value    5.4678615165181426E-003
 DIRECTION dim           33  value   -1.9614395035178027E-003
 DIRECTION dim           34  value    9.1901782218175007E-002
 DIRECTION dim           35  value    2.1066668861427672E-002
 DIRECTION dim           36  value   -5.0652383902214951E-002
 DIRECTION dim           37  value    2.4946982441779383E-002
 DIRECTION dim           38  value    4.2260305956559885E-002
 DIRECTION dim           39  value    4.3938993573275749E-004
 DIRECTION dim           40  value  -0.18980725407753682     
 DIRECTION dim           41  value   -7.4018297408128403E-002
 DIRECTION dim           42  value    1.0540950278571470E-002
 DIRECTION dim           43  value   0.47708742341024724     
 DIRECTION dim           44  value  -0.17676508632289634     
 DIRECTION dim           45  value   0.45520222581269387     
 DIRECTION dim           46  value   0.56429484509731687     
 DIRECTION dim           47  value    1.1006622918007916     
 DIRECTION dim           48  value   0.41608894584781753     
  Cycle:     10 Energy:    -15776.370131  Gnorm:  35240.802748  CPU:    0.133
  ** Hessian calculated **
 ALPHA BEFORE:    1.0000000000000000     
 XC BEFORE:   0.82350425297191010     
  ** Opt : line minimisation
left   ...       0.00000000  -15776.37013131
centre ...       0.25000000  -12168.15390224
right  ...      -0.25000000   -6067.17897362

left   ...      -0.25000000   -6067.17897362
centre ...       0.00000000  -15776.37013131
right  ...       0.25000000  -12168.15390224
new    ...       0.05726504  -16593.41816817

__s__    ...       0.30726504

left   ...       0.00000000  -15776.37013131
centre ...       0.05726504  -16593.41816817
right  ...       0.25000000  -12168.15390224
new    ...       0.07653920  -16620.26990139

__s__    ...       0.01927416

left   ...       0.05726504  -16593.41816817
centre ...       0.07653920  -16620.26990139
right  ...       0.25000000  -12168.15390224
new    ...       0.07186355  -16625.41623028

__s__    ...      -0.00467565

left   ...       0.05726504  -16593.41816817
centre ...       0.07186355  -16625.41623028
right  ...       0.07653920  -16620.26990139
new    ...       0.07097978  -16625.55252004

__s__    ...      -0.00088376

 ALPHA AFTER:    7.0979784555089215E-002
 XC AFTER:   0.82817331312901243     
 SANITY CHECK:    7.0979784555089520E-002
 DIRECTION dim            1  value    6.5780139885864786E-002
 DIRECTION dim            2  value   -1.4345853603351963E-002
 DIRECTION dim            3  value  -0.28012414429483551     
 DIRECTION dim            4  value   0.14948088678175178     
 DIRECTION dim            5  value   -3.5154380988184207E-002
 DIRECTION dim            6  value    1.2916103962068597E-002
 DIRECTION dim            7  value    1.1854524521356545E-002
 DIRECTION dim            8  value   -1.1672278670017021E-002
 DIRECTION dim            9  value    1.1663650735072270E-002
 DIRECTION dim           10  value   -6.7544348970231732E-002
 DIRECTION dim           11  value    6.9856607665306242E-002
 DIRECTION dim           12  value    6.3235878300299878E-002
 DIRECTION dim           13  value    1.9140739248239797E-002
 DIRECTION dim           14  value    2.3818711367614268E-002
 DIRECTION dim           15  value   -4.4068069623526336E-002
 DIRECTION dim           16  value    4.9274490881694194E-002
 DIRECTION dim           17  value    7.5989595557031747E-002
 DIRECTION dim           18  value    2.7865825630190213E-002
 DIRECTION dim           19  value   0.26682812992090454     
 DIRECTION dim           20  value   -3.1274562476024399E-002
 DIRECTION dim           21  value    1.7561691149532432E-002
 DIRECTION dim           22  value   -1.1854340226023108E-002
 DIRECTION dim           23  value    1.1672691508244607E-002
 DIRECTION dim           24  value   -1.1667426763723236E-002
 DIRECTION dim           25  value   -4.4403414044132689E-003
 DIRECTION dim           26  value    3.4023579061281416E-002
 DIRECTION dim           27  value   -9.9345086238913596E-002
 DIRECTION dim           28  value   -2.3532275775770755E-002
 DIRECTION dim           29  value    3.8245075322678034E-002
 DIRECTION dim           30  value    2.2197109167661197E-002
 DIRECTION dim           31  value  -0.13172424475219979     
 DIRECTION dim           32  value   -1.5963695531181290E-002
 DIRECTION dim           33  value   -4.6717586887102683E-003
 DIRECTION dim           34  value  -0.11712887180815118     
 DIRECTION dim           35  value   -1.7178277435302737E-002
 DIRECTION dim           36  value   0.24988984036460199     
 DIRECTION dim           37  value    8.7039843356873561E-003
 DIRECTION dim           38  value   -3.9923048114587176E-002
 DIRECTION dim           39  value    8.1311190014727065E-003
 DIRECTION dim           40  value   0.30376035858084943     
 DIRECTION dim           41  value    5.0990403491774867E-002
 DIRECTION dim           42  value   -6.0758624944288825E-002
 DIRECTION dim           43  value  -0.52415553892166333     
 DIRECTION dim           44  value   0.18285651300773348     
 DIRECTION dim           45  value  -0.52873083594745196     
 DIRECTION dim           46  value   -1.0588252031184149     
 DIRECTION dim           47  value   -1.2775521450915310     
 DIRECTION dim           48  value  -0.64933307705906951     
  Cycle:     11 Energy:    -16625.552520  Gnorm:  37809.742261  CPU:    0.148
  ** Hessian calculated **
 ALPHA BEFORE:    1.0000000000000000     
 XC BEFORE:   0.82817331312901243     
  ** Opt : line minimisation
left   ...       0.00000000  -16625.55252004
centre ...       0.13108474  -16247.42214210
right  ...      -0.13108474  -27071.64694065

left   ...      -0.13108474  -27071.64694065
centre ...       0.00000000  -16625.55252004
right  ...       0.13108474  -16247.42214210
new    ...      -0.26216947  -18051.34426843

__s__    ...      -0.13108474

left   ...      -0.26216947  -18051.34426843
centre ...      -0.13108474  -27071.64694065
right  ...       0.00000000  -16625.55252004
new    ...      -0.13588530  -49148.54045004

__s__    ...       0.12628417

left   ...      -0.26216947  -18051.34426843
centre ...      -0.13588530  -49148.54045004
right  ...      -0.13108474  -27071.64694065
new    ...      -0.19569623  -17692.38960448

__s__    ...      -0.05981092

left   ...      -0.19569623  -17692.38960448
centre ...      -0.13588530  -49148.54045004
right  ...      -0.13108474  -27071.64694065
new    ...      -0.16247538  -63020.48499491

__s__    ...       0.03322084

left   ...      -0.19569623  -17692.38960448
centre ...      -0.16247538  -63020.48499491
right  ...      -0.13588530  -49148.54045004
new    ...      -0.15745202 -178828.06392519

__s__    ...       0.00502337

left   ...      -0.16247538  -63020.48499491
centre ...      -0.15745202 -178828.06392519
right  ...      -0.13588530  -49148.54045004
new    ...      -0.14941897 -474417.21542775

__s__    ...       0.00803305

 ALPHA AFTER:   0.14941896677208838     
 XC AFTER:   0.82757347165527995     
 SANITY CHECK:   0.14941896677213581     
 DIRECTION dim            1  value   -4.0144935190674072E-003
 DIRECTION dim            2  value    8.0989439209288832E-005
 DIRECTION dim            3  value   0.11078897373026035     
 DIRECTION dim            4  value   -3.5016433730677830E-002
 DIRECTION dim            5  value    9.3303524933500241E-003
 DIRECTION dim            6  value   -3.0514613097843224     
 DIRECTION dim            7  value   -5.7099281381477261E-004
 DIRECTION dim            8  value    2.3750666413626035E-003
 DIRECTION dim            9  value   -8.7830075592976802E-005
 DIRECTION dim           10  value    6.4348628663549986E-003
 DIRECTION dim           11  value   -1.5501165491302916E-002
 DIRECTION dim           12  value   -8.6756244492467507E-003
 DIRECTION dim           13  value   -2.1209815048606881E-003
 DIRECTION dim           14  value    1.2942965768400455E-003
 DIRECTION dim           15  value    1.1484371382600481E-002
 DIRECTION dim           16  value   -3.3644293101500876E-002
 DIRECTION dim           17  value   -1.1295746738587227E-002
 DIRECTION dim           18  value   -8.4921488063971727E-003
 DIRECTION dim           19  value   -4.2227867065752718E-002
 DIRECTION dim           20  value    5.9395699565969939E-003
 DIRECTION dim           21  value   -6.1254669596935863E-003
 DIRECTION dim           22  value    5.6975212863235821E-004
 DIRECTION dim           23  value   -2.3751144423827968E-003
 DIRECTION dim           24  value    8.8462268000838719E-005
 DIRECTION dim           25  value   -1.5280515468362604E-003
 DIRECTION dim           26  value   -6.7656471419605966E-003
 DIRECTION dim           27  value    1.8275311553244605E-002
 DIRECTION dim           28  value   -1.6781951222056123E-002
 DIRECTION dim           29  value   -9.7901676197343478E-003
 DIRECTION dim           30  value   -1.1867099305598308E-002
 DIRECTION dim           31  value    2.8259262968127342E-002
 DIRECTION dim           32  value   -9.1536420158696858E-004
 DIRECTION dim           33  value   -1.0522956738038912E-004
 DIRECTION dim           34  value    1.6439780356671312E-002
 DIRECTION dim           35  value    6.1170726592970287E-003
 DIRECTION dim           36  value   -6.4156714331707002E-004
 DIRECTION dim           37  value    3.8097811829355711E-002
 DIRECTION dim           38  value    1.1844754391791801E-002
 DIRECTION dim           39  value    2.2695374414948431E-003
 DIRECTION dim           40  value   -1.3244705239273959E-002
 DIRECTION dim           41  value   -2.3480695139749951E-002
 DIRECTION dim           42  value   -2.1905332452436120E-003
 DIRECTION dim           43  value    9.1167946386201404E-002
 DIRECTION dim           44  value   -3.6520592637318293E-002
 DIRECTION dim           45  value    7.1841807443550204E-002
 DIRECTION dim           46  value    6.2332456988568624E-002
 DIRECTION dim           47  value   0.20132470605258168     
 DIRECTION dim           48  value    5.9375094369911993E-002
  Cycle:     12 Energy:   -474417.215428  Gnorm:1445726.379824  CPU:    0.161
  ** Hessian calculated **
 ALPHA BEFORE:    1.0000000000000000     
 XC BEFORE:   0.82757347165527995     
  ** Opt : line minimisation
left   ...       0.00000000 -474417.21542775
centre ...       0.20856392   -2455.93838334
right  ...      -0.20856392 -126181.80855654

left   ...      -0.20856392 -126181.80855654
centre ...       0.00000000 -474417.21542775
right  ...       0.20856392   -2455.93838334
new    ...      -0.01573083 -702823.95988930

__s__    ...       0.19283309

left   ...      -0.20856392 -126181.80855654
centre ...      -0.01573083 -702823.95988930
right  ...       0.00000000 -474417.21542775
new    ...      -0.09433809  -63755.40619137

__s__    ...      -0.07860726

left   ...      -0.09433809  -63755.40619137
centre ...      -0.01573083 -702823.95988930
right  ...       0.00000000 -474417.21542775
new    ...      -0.03810350 -425025.49077981

__s__    ...       0.05623460

left   ...      -0.03810350 -425025.49077981
centre ...      -0.01573083 -702823.95988930
right  ...       0.00000000 -474417.21542775
new    ...      -0.01813493 -703930.80692015

__s__    ...       0.01996856

left   ...      -0.03810350 -425025.49077981
centre ...      -0.01813493 -703930.80692015
right  ...      -0.01573083 -702823.95988930
new    ...      -0.01728985 -704812.41042257

__s__    ...       0.00084508

left   ...      -0.01813493 -703930.80692015
centre ...      -0.01728985 -704812.41042257
right  ...      -0.01573083 -702823.95988930
new    ...      -0.01717156 -704826.36832447

__s__    ...       0.00011829

 ALPHA AFTER:    1.7171563819504583E-002
 XC AFTER:   0.82741161078285275     
 SANITY CHECK:    1.7171563819507459E-002
 DIRECTION dim            1  value   -9.4260996918242509E-003
 DIRECTION dim            2  value   0.43745485041650428     
 DIRECTION dim            3  value   -1.8589422229287917E-003
 DIRECTION dim            4  value    9.4261255589367324E-003
 DIRECTION dim            5  value  -0.43747277359263192     
 DIRECTION dim            6  value    1.8588363648374146E-003
 DIRECTION dim            7  value   -4.9022963482560425E-003
 DIRECTION dim            8  value    1.1193030281430089E-002
 DIRECTION dim            9  value   -1.8043687108872043E-003
 DIRECTION dim           10  value   -8.5328067481398484E-002
 DIRECTION dim           11  value   -8.9935016113851782E-002
 DIRECTION dim           12  value   -5.9936632490520926E-002
 DIRECTION dim           13  value    8.0593073127500361E-004
 DIRECTION dim           14  value    3.6014342933320072E-002
 DIRECTION dim           15  value    6.5037884092020562E-002
 DIRECTION dim           16  value   -3.7109638872016598E-002
 DIRECTION dim           17  value   -3.7742246958940534E-003
 DIRECTION dim           18  value   -2.3147973880916037E-002
 DIRECTION dim           19  value  -0.32319372909652744     
 DIRECTION dim           20  value    2.7461716233375292E-002
 DIRECTION dim           21  value   -1.4643367060885898E-002
 DIRECTION dim           22  value    4.8988193205495708E-003
 DIRECTION dim           23  value   -1.1193249985558306E-002
 DIRECTION dim           24  value    1.8039801354332986E-003
 DIRECTION dim           25  value    5.4363357799556665E-002
 DIRECTION dim           26  value   -4.5658851627766020E-002
 DIRECTION dim           27  value   0.22051563478802325     
 DIRECTION dim           28  value   -1.4853560661797315E-002
 DIRECTION dim           29  value   -4.6109770394753863E-002
 DIRECTION dim           30  value   -4.9751207379181463E-002
 DIRECTION dim           31  value   0.21454275031543621     
 DIRECTION dim           32  value    3.7542420677829973E-002
 DIRECTION dim           33  value   -1.8157772715364826E-002
 DIRECTION dim           34  value   0.17701316599779740     
 DIRECTION dim           35  value   0.10986887158038239     
 DIRECTION dim           36  value   -4.3753201478025167E-002
 DIRECTION dim           37  value    6.2864039467955671E-002
 DIRECTION dim           38  value    4.9088356986018968E-002
 DIRECTION dim           39  value    5.1588471110998327E-003
 DIRECTION dim           40  value   0.38197177167802171     
 DIRECTION dim           41  value  -0.13003813827306346     
 DIRECTION dim           42  value    1.9178772218176079     
 DIRECTION dim           43  value  -0.20510219148929010     
 DIRECTION dim           44  value   -1.4890109053511880     
 DIRECTION dim           45  value   0.59043089947959781     
 DIRECTION dim           46  value   -1.1231307752224984     
 DIRECTION dim           47  value    1.0496748527887108     
 DIRECTION dim           48  value    1.4725598462130716     
  Cycle:     13 Energy:   -704826.368324  Gnorm:2112963.012101  CPU:    0.177
  ** Hessian calculated **
 ALPHA BEFORE:    1.0000000000000000     
 XC BEFORE:   0.82741161078285275     
  ** Opt : line minimisation
left   ...       0.00000000 -704826.36832447
centre ...       0.25000000 -800252.70319547
right  ...       0.50000000 -305238.43472649

left   ...       0.00000000 -704826.36832447
centre ...       0.25000000 -800252.70319547
right  ...       0.50000000 -305238.43472649
new    ...       0.24600024 -805608.51500467

__s__    ...      -0.25399976

left   ...       0.00000000 -704826.36832447
centre ...       0.24600024 -805608.51500467
right  ...       0.25000000 -800252.70319547
new    ...       0.15228467 -862987.57377034

__s__    ...      -0.09371557

left   ...       0.00000000 -704826.36832447
centre ...       0.15228467 -862987.57377034
right  ...       0.24600024 -805608.51500467
new    ...       0.15352431 -863121.56662981

__s__    ...       0.00123964

left   ...       0.15228467 -862987.57377034
centre ...       0.15352431 -863121.56662981
right  ...       0.24600024 -805608.51500467
new    ...       0.15984253 -863435.87156961

__s__    ...       0.00631822

left   ...       0.15352431 -863121.56662981
centre ...       0.15984253 -863435.87156961
right  ...       0.24600024 -805608.51500467
new    ...       0.15987396 -863435.88685609

__s__    ...       0.00003143

 ALPHA AFTER:   0.15987395846102812     
 XC AFTER:   0.82876587730731421     
 SANITY CHECK:   0.15987395846102090     
 DIRECTION dim            1  value    8.4708387625971795E-003
 DIRECTION dim            2  value    1.5316182553583142E-004
 DIRECTION dim            3  value    1.6524658421624738E-003
 DIRECTION dim            4  value   -8.4708555205850553E-003
 DIRECTION dim            5  value   -1.5323500118356222E-004
 DIRECTION dim            6  value   -1.6524046426966111E-003
 DIRECTION dim            7  value    8.6784103904222979E-003
 DIRECTION dim            8  value   -1.1224961845040488E-002
 DIRECTION dim            9  value    7.6513787775732151E-004
 DIRECTION dim           10  value   0.16496508002551455     
 DIRECTION dim           11  value    9.1893803520090397E-002
 DIRECTION dim           12  value    6.3768128409294189E-002
 DIRECTION dim           13  value    8.8681705210084637E-005
 DIRECTION dim           14  value   -4.0979689385423762E-002
 DIRECTION dim           15  value   -7.2993064318711123E-002
 DIRECTION dim           16  value    1.0870518153298168E-002
 DIRECTION dim           17  value    8.4440782587353257E-004
 DIRECTION dim           18  value    1.9158497185605711E-002
 DIRECTION dim           19  value   0.42337833618561355     
 DIRECTION dim           20  value   -2.2994033740330898E-002
 DIRECTION dim           21  value   -2.1483905473889790E-002
 DIRECTION dim           22  value   -8.6771867797935456E-003
 DIRECTION dim           23  value    1.1225125761998056E-002
 DIRECTION dim           24  value   -7.6317350482564778E-004
 DIRECTION dim           25  value   -5.2130989310124762E-002
 DIRECTION dim           26  value    4.6804879236183809E-002
 DIRECTION dim           27  value  -0.20099053816170198     
 DIRECTION dim           28  value    2.3432880452154779E-002
 DIRECTION dim           29  value    4.9847779449500688E-002
 DIRECTION dim           30  value    5.3704882343918681E-002
 DIRECTION dim           31  value  -0.25283189832077335     
 DIRECTION dim           32  value   -3.8154587089424673E-002
 DIRECTION dim           33  value    4.8675370879615104E-003
 DIRECTION dim           34  value  -0.22963535786174269     
 DIRECTION dim           35  value   -9.3551896383280417E-002
 DIRECTION dim           36  value   0.10197154774910663     
 DIRECTION dim           37  value   -7.7046594987879677E-002
 DIRECTION dim           38  value   -4.7693881984018534E-002
 DIRECTION dim           39  value   -2.1958396907071158E-003
 DIRECTION dim           40  value  -0.35971418624700074     
 DIRECTION dim           41  value   0.11268697441881849     
 DIRECTION dim           42  value   0.51042354831149228     
 DIRECTION dim           43  value   0.17844893427943842     
 DIRECTION dim           44  value   0.18431174176408716     
 DIRECTION dim           45  value  -0.61558433207069108     
 DIRECTION dim           46  value  -0.32278056630291924     
 DIRECTION dim           47  value   -1.5748046520480457     
 DIRECTION dim           48  value   -7.7803802276420309E-002
  Cycle:     14 Energy:   -863435.886856  Gnorm:3815131.803378  CPU:    0.194
  ** Hessian calculated **
 ALPHA BEFORE:    1.0000000000000000     
 XC BEFORE:   0.82876587730731421     
  ** Opt : line minimisation
left   ...       0.00000000 -863435.88685609
centre ...       0.13583026 -770728.96391478
right  ...      -0.13583026 -967377.35731638

left   ...      -0.13583026 -967377.35731638
centre ...       0.00000000 -863435.88685609
right  ...       0.13583026 -770728.96391478
new    ...      -0.27166053-1083498.24952445

__s__    ...      -0.13583026

left   ...      -0.27166053-1083498.24952445
centre ...      -0.13583026 -967377.35731638
right  ...       0.00000000 -863435.88685609
new    ...      -0.40749079-1212673.18017172

__s__    ...      -0.13583026

left   ...      -0.40749079-1212673.18017172
centre ...      -0.27166053-1083498.24952445
right  ...      -0.13583026 -967377.35731638
new    ...      -0.54332105-1355740.63344203

__s__    ...      -0.13583026

left   ...      -0.54332105-1355740.63344203
centre ...      -0.40749079-1212673.18017172
right  ...      -0.27166053-1083498.24952445
new    ...      -0.67915132-1513100.66446464

__s__    ...      -0.13583026

left   ...      -0.67915132-1513100.66446464
centre ...      -0.54332105-1355740.63344203
right  ...      -0.40749079-1212673.18017172
new    ...      -0.81498158-1684896.41463848

__s__    ...      -0.13583026

left   ...      -0.81498158-1684896.41463848
centre ...      -0.67915132-1513100.66446464
right  ...      -0.54332105-1355740.63344203
new    ...      -0.95081184-1870662.86353259

__s__    ...      -0.13583026

 ALPHA AFTER:   0.95081184367271598     
 XC AFTER:   0.82784253532967511     
 SANITY CHECK:   0.95081184367256044     
 DIRECTION dim            1  value   -9.7110904095666932E-004
 DIRECTION dim            2  value   -1.2919933352204463E-004
 DIRECTION dim            3  value    1.9856332577620761E-003
 DIRECTION dim            4  value    9.7110949161652999E-004
 DIRECTION dim            5  value    1.2920357850897300E-004
 DIRECTION dim            6  value   -1.9856316013873634E-003
 DIRECTION dim            7  value   -2.1223765900338514E-004
 DIRECTION dim            8  value    1.5174248248349873E-003
 DIRECTION dim            9  value    1.4883521415692384E-003
 DIRECTION dim           10  value    6.8574962310114368E-003
 DIRECTION dim           11  value   -9.0446762080659993E-002
 DIRECTION dim           12  value   -9.5455626947481605E-003
 DIRECTION dim           13  value    8.2139977364865894E-003
 DIRECTION dim           14  value    1.6500303556356202E-002
 DIRECTION dim           15  value   -1.3532449882323549E-003
 DIRECTION dim           16  value    5.4268942306335659E-003
 DIRECTION dim           17  value   -4.8792759003950187E-003
 DIRECTION dim           18  value   -4.2807795296058498E-003
 DIRECTION dim           19  value   -9.5110564605704034E-003
 DIRECTION dim           20  value    1.7723394089579289E-003
 DIRECTION dim           21  value   -3.2750937025234220E-003
 DIRECTION dim           22  value    2.1014143060445490E-004
 DIRECTION dim           23  value   -1.5173700683239312E-003
 DIRECTION dim           24  value   -1.4868246763665772E-003
 DIRECTION dim           25  value    6.5954783167475857E-005
 DIRECTION dim           26  value   -5.8998011658507260E-003
 DIRECTION dim           27  value    3.1693286284236913E-002
 DIRECTION dim           28  value    8.2520593533795539E-003
 DIRECTION dim           29  value   -6.1533907447289737E-003
 DIRECTION dim           30  value   -4.6320088207803742E-003
 DIRECTION dim           31  value    1.4234090853586014E-002
 DIRECTION dim           32  value    7.2945138443455421E-003
 DIRECTION dim           33  value   -9.2056368576765892E-003
 DIRECTION dim           34  value   -2.0906498316501376E-003
 DIRECTION dim           35  value   -6.1803482121499213E-003
 DIRECTION dim           36  value    4.0120995594266455E-003
 DIRECTION dim           37  value   -5.1896019050773094E-003
 DIRECTION dim           38  value    1.9110254042786486E-002
 DIRECTION dim           39  value    3.0951556434654803E-002
 DIRECTION dim           40  value   -3.8145043651404732E-002
 DIRECTION dim           41  value   -1.3083012169483908E-002
 DIRECTION dim           42  value    2.9448518322872337     
 DIRECTION dim           43  value   -2.2819275043347218E-002
 DIRECTION dim           44  value   -2.2812801095011839E-002
 DIRECTION dim           45  value    5.9771314788399789E-002
 DIRECTION dim           46  value    4.1565892071005715E-003
 DIRECTION dim           47  value   -1.2117188889731635E-002
 DIRECTION dim           48  value    1.8846388520889466E-003
  Cycle:     15 Energy:  -1870662.863533  Gnorm:8006607.780115  CPU:    0.211
  ** Hessian calculated **
 ALPHA BEFORE:    1.0000000000000000     
 XC BEFORE:   0.82784253532967511     
  ** Opt : line minimisation
left   ...       0.00000000-1870662.86353259
centre ...       0.10393087  -18015.58638285
right  ...      -0.10393087  -24631.87539813

left   ...      -0.10393087  -24631.87539813
centre ...       0.00000000-1870662.86353259
right  ...       0.10393087  -18015.58638285
new    ...      -0.00009296-1854513.93782167

__s__    ...       0.10383791

left   ...      -0.00009296-1854513.93782167
centre ...       0.00000000-1870662.86353259
right  ...       0.10393087  -18015.58638285
new    ...       0.04712518  -56078.81534047

__s__    ...       0.04721814

left   ...      -0.00009296-1854513.93782167
centre ...       0.00000000-1870662.86353259
right  ...       0.04712518  -56078.81534047
new    ...       0.01927912-1384581.60943023

__s__    ...      -0.02784606

left   ...      -0.00009296-1854513.93782167
centre ...       0.00000000-1870662.86353259
right  ...       0.01927912-1384581.60943023
new    ...       0.00841197-2800233.15410805

__s__    ...      -0.01086714

left   ...       0.00000000-1870662.86353259
centre ...       0.00841197-2800233.15410805
right  ...       0.01927912-1384581.60943023
new    ...       0.00863015-2797239.14816392

__s__    ...       0.00021817

left   ...       0.00000000-1870662.86353259
centre ...       0.00841197-2800233.15410805
right  ...       0.00863015-2797239.14816392
new    ...       0.00804439-2801369.84019073

__s__    ...      -0.00058576

 ALPHA AFTER:    8.0443912223385535E-003
 XC AFTER:   0.82787823784788495     
 SANITY CHECK:    8.0443912223581420E-003
 DIRECTION dim            1  value    4.4381877040744972E-003
 DIRECTION dim            2  value    1.2377681229753703E-003
 DIRECTION dim            3  value   0.64041962394298124     
 DIRECTION dim            4  value   -4.4381894046183661E-003
 DIRECTION dim            5  value   -1.2377737959046991E-003
 DIRECTION dim            6  value  -0.64042145094291436     
 DIRECTION dim            7  value    2.5349153277761816E-003
 DIRECTION dim            8  value   -6.7930835809009767E-003
 DIRECTION dim            9  value   -6.4970166212929906E-003
 DIRECTION dim           10  value  -0.13983815972339961     
 DIRECTION dim           11  value    7.0055566891789852E-003
 DIRECTION dim           12  value   -3.8487122576850670     
 DIRECTION dim           13  value   -6.0897841761885750E-002
 DIRECTION dim           14  value   -5.5760693828632635E-002
 DIRECTION dim           15  value   -3.4474718044484494E-003
 DIRECTION dim           16  value  -0.40164866147688805     
 DIRECTION dim           17  value    3.9674913298484167E-002
 DIRECTION dim           18  value    2.7173228058258572E-002
 DIRECTION dim           19  value    2.0061882308571453E-002
 DIRECTION dim           20  value   -2.3926893679155396E-002
 DIRECTION dim           21  value    3.4390497535737100E-002
 DIRECTION dim           22  value   -2.5290913737512056E-003
 DIRECTION dim           23  value    6.7926314010400080E-003
 DIRECTION dim           24  value    6.4939543517835915E-003
 DIRECTION dim           25  value   -3.6089215669968769E-002
 DIRECTION dim           26  value    4.7703050432504231E-002
 DIRECTION dim           27  value  -0.10534136559382207     
 DIRECTION dim           28  value   -2.4741743865420659E-002
 DIRECTION dim           29  value    3.3959718597368904E-002
 DIRECTION dim           30  value   -1.5847760248966038E-002
 DIRECTION dim           31  value   -1.9332127148081687E-002
 DIRECTION dim           32  value   -2.8413416838872552E-002
 DIRECTION dim           33  value    1.3751703045336386E-002
 DIRECTION dim           34  value   -2.1232502486938636E-002
 DIRECTION dim           35  value    7.6313909130669988E-002
 DIRECTION dim           36  value   -1.8954375622219063E-002
 DIRECTION dim           37  value   0.11182807495089674     
 DIRECTION dim           38  value   -2.5095766931604941E-002
 DIRECTION dim           39  value   -1.1081720733273055     
 DIRECTION dim           40  value    6.5907512249398476E-002
 DIRECTION dim           41  value    1.5081485747354881     
 DIRECTION dim           42  value    1.6607449685998872E-002
 DIRECTION dim           43  value   0.10711661610674704     
 DIRECTION dim           44  value   0.10763499213460949     
 DIRECTION dim           45  value  -0.33342735494115844     
 DIRECTION dim           46  value    6.8435174792849982E-002
 DIRECTION dim           47  value  -0.20921411662006703     
 DIRECTION dim           48  value    1.5167088669281698E-002
  Cycle:     16 Energy:  -2801369.840191  Gnorm:8539430.644187  CPU:    0.228
  ** Hessian calculated **
 ALPHA BEFORE:    1.0000000000000000     
 XC BEFORE:   0.82787823784788495     
  ** Opt : line minimisation
left   ...       0.00000000-2801369.84019073
centre ...       0.10184864-2094595.33786773
right  ...      -0.10184864 -395953.70735318

left   ...      -0.10184864 -395953.70735318
centre ...       0.00000000-2801369.84019073
right  ...       0.10184864-2094595.33786773
new    ...       0.00000000-2801369.84019073

__s__    ...       0.10184864

 ALPHA AFTER:    0.0000000000000000     
 XC AFTER:   0.82787823784788495     
 SANITY CHECK:    0.0000000000000000     
 DIRECTION dim            1  value    1.0229043234629169E-002
 DIRECTION dim            2  value    4.3950720752122798E-003
 DIRECTION dim            3  value   -9.6544415515894179E-006
 DIRECTION dim            4  value   -1.0229046474034080E-002
 DIRECTION dim            5  value   -4.3950768711609372E-003
 DIRECTION dim            6  value    9.6578497678362222E-006
 DIRECTION dim            7  value    3.8902144152146516E-003
 DIRECTION dim            8  value   -1.0812439747625286E-002
 DIRECTION dim            9  value   -1.0271131295647726E-002
 DIRECTION dim           10  value   0.49574418293714906     
 DIRECTION dim           11  value    1.4085385448698721E-002
 DIRECTION dim           12  value   -4.9353346602347130E-002
 DIRECTION dim           13  value   -9.0623229121330251E-002
 DIRECTION dim           14  value   -8.2213828442171469E-002
 DIRECTION dim           15  value   -7.6969308161927638E-002
 DIRECTION dim           16  value  -0.52421606297016310     
 DIRECTION dim           17  value    6.9521191748386821E-002
 DIRECTION dim           18  value    4.1453527612305412E-002
 DIRECTION dim           19  value    4.3062569658168612E-002
 DIRECTION dim           20  value   -3.8609296471904378E-002
 DIRECTION dim           21  value    4.3829101632573406E-002
 DIRECTION dim           22  value   -3.8823841020192078E-003
 DIRECTION dim           23  value    1.0812201404703891E-002
 DIRECTION dim           24  value    1.0268013738176707E-002
 DIRECTION dim           25  value   -5.4210434413366392E-002
 DIRECTION dim           26  value    7.3262792238950505E-002
 DIRECTION dim           27  value  -0.16757000384303766     
 DIRECTION dim           28  value   -4.2017577755793574E-002
 DIRECTION dim           29  value    5.3457567788022346E-002
 DIRECTION dim           30  value   -2.2956443327732775E-002
 DIRECTION dim           31  value   -3.0682124950683867E-002
 DIRECTION dim           32  value   -4.4942802370666182E-002
 DIRECTION dim           33  value    2.2268461521960301E-002
 DIRECTION dim           34  value   -3.5946504975005844E-002
 DIRECTION dim           35  value   0.11306302850102491     
 DIRECTION dim           36  value   -3.8124149081002312E-002
 DIRECTION dim           37  value  -0.69412033435366605     
 DIRECTION dim           38  value   -2.6200860969911994E-002
 DIRECTION dim           39  value    5.1534381569371138E-002
 DIRECTION dim           40  value    9.2810364156595770E-002
 DIRECTION dim           41  value  -0.44792949640061264     
 DIRECTION dim           42  value    2.7053689321753036E-002
 DIRECTION dim           43  value   0.23650228563426215     
 DIRECTION dim           44  value   0.28147225320885794     
 DIRECTION dim           45  value   -3.9273966519812822     
 DIRECTION dim           46  value   0.24242676966826465     
 DIRECTION dim           47  value   0.47885803693734119     
 DIRECTION dim           48  value   0.13192306654854427     
  Cycle:     17 Energy:  -2801369.840191  Gnorm:8539430.644187  CPU:    0.241
  ** Hessian calculated **
 ALPHA BEFORE:    1.0000000000000000     
 XC BEFORE:   0.82787823784788495     
  ** Opt : line minimisation
left   ...       0.00000000-2801369.84019073
centre ...       0.10184864-2094595.33786773
right  ...      -0.10184864 -395953.70735318

left   ...      -0.10184864 -395953.70735318
centre ...       0.00000000-2801369.84019073
right  ...       0.10184864-2094595.33786773
new    ...       0.00000000-2801369.84019073

__s__    ...       0.10184864

 ALPHA AFTER:    0.0000000000000000     
 XC AFTER:   0.82787823784788495     
 SANITY CHECK:    0.0000000000000000     
 DIRECTION dim            1  value    1.0229043234629169E-002
 DIRECTION dim            2  value    4.3950720752122798E-003
 DIRECTION dim            3  value   -9.6544415515894179E-006
 DIRECTION dim            4  value   -1.0229046474034080E-002
 DIRECTION dim            5  value   -4.3950768711609372E-003
 DIRECTION dim            6  value    9.6578497678362222E-006
 DIRECTION dim            7  value    3.8902144152146516E-003
 DIRECTION dim            8  value   -1.0812439747625286E-002
 DIRECTION dim            9  value   -1.0271131295647726E-002
 DIRECTION dim           10  value   0.49574418293714906     
 DIRECTION dim           11  value    1.4085385448698721E-002
 DIRECTION dim           12  value   -4.9353346602347130E-002
 DIRECTION dim           13  value   -9.0623229121330251E-002
 DIRECTION dim           14  value   -8.2213828442171469E-002
 DIRECTION dim           15  value   -7.6969308161927638E-002
 DIRECTION dim           16  value  -0.52421606297016310     
 DIRECTION dim           17  value    6.9521191748386821E-002
 DIRECTION dim           18  value    4.1453527612305412E-002
 DIRECTION dim           19  value    4.3062569658168612E-002
 DIRECTION dim           20  value   -3.8609296471904378E-002
 DIRECTION dim           21  value    4.3829101632573406E-002
 DIRECTION dim           22  value   -3.8823841020192078E-003
 DIRECTION dim           23  value    1.0812201404703891E-002
 DIRECTION dim           24  value    1.0268013738176707E-002
 DIRECTION dim           25  value   -5.4210434413366392E-002
 DIRECTION dim           26  value    7.3262792238950505E-002
 DIRECTION dim           27  value  -0.16757000384303766     
 DIRECTION dim           28  value   -4.2017577755793574E-002
 DIRECTION dim           29  value    5.3457567788022346E-002
 DIRECTION dim           30  value   -2.2956443327732775E-002
 DIRECTION dim           31  value   -3.0682124950683867E-002
 DIRECTION dim           32  value   -4.4942802370666182E-002
 DIRECTION dim           33  value    2.2268461521960301E-002
 DIRECTION dim           34  value   -3.5946504975005844E-002
 DIRECTION dim           35  value   0.11306302850102491     
 DIRECTION dim           36  value   -3.8124149081002312E-002
 DIRECTION dim           37  value  -0.69412033435366605     
 DIRECTION dim           38  value   -2.6200860969911994E-002
 DIRECTION dim           39  value    5.1534381569371138E-002
 DIRECTION dim           40  value    9.2810364156595770E-002
 DIRECTION dim           41  value  -0.44792949640061264     
 DIRECTION dim           42  value    2.7053689321753036E-002
 DIRECTION dim           43  value   0.23650228563426215     
 DIRECTION dim           44  value   0.28147225320885794     
 DIRECTION dim           45  value   -3.9273966519812822     
 DIRECTION dim           46  value   0.24242676966826465     
 DIRECTION dim           47  value   0.47885803693734119     
 DIRECTION dim           48  value   0.13192306654854427     


  **** Conditions for a minimum have not been satisfied. However ****
  **** no lower point can be found - treat results with caution  ****
  **** unless gradient norm is small (less than 0.1)             ****


  Final energy = **************** eV
  Final Gnorm  = 8539430.64418749

  Components of energy : 

--------------------------------------------------------------------------------
  Interatomic potentials     =    -2801177.94614176 eV    
  Monopole - monopole (real) =         122.94304044 eV    
  Monopole - monopole (recip)=        -314.83708941 eV    
  Monopole - monopole (total)=        -191.89404897 eV    
--------------------------------------------------------------------------------
  Total lattice energy       =    -2801369.84019073 eV    
--------------------------------------------------------------------------------
  Total lattice energy       =      -270289366.7185 kJ/(mole unit cells)
--------------------------------------------------------------------------------

  Final fractional coordinates of atoms :

--------------------------------------------------------------------------------
   No.  Atomic        x           y          z          Radius
        Label       (Frac)      (Frac)     (Frac)       (Angs) 
--------------------------------------------------------------------------------
     1  O     c     0.000000    0.333330    0.833330    0.000000
     2  O     c     0.827878    0.567903    0.075225    0.000000
     3  O     c     0.768105    0.563530    0.044638    0.000000
     4  O     c     0.433060    0.874810    0.205129    0.000000
     5  O     c     0.529252    0.191269    0.217859    0.000000
     6  O     c     0.368800    0.272456    0.841236    0.000000
     7  O     c     0.555800    0.884633    0.566054    0.000000
     8  O     c     0.806896    0.085358    0.998265    0.000000
     9  O     c     0.453581    0.951865    0.216733    0.000000
    10  Sr    c     0.578543    0.773516    0.001055    0.000000
    11  Sr    c     0.249029    0.549955    0.999550    0.000000
    12  Sr    c     0.435036    0.641341    0.342985    0.000000
    13  Ti    c     0.740786    0.268563    0.572130    0.000000
    14  Ti    c     0.250012    0.175161    0.044900    0.000000
    15  Ti    c     0.862397    0.831545    0.298405    0.000000
--------------------------------------------------------------------------------

  Final Cartesian lattice vectors (Angstroms) :

        4.755953   -0.195074   -1.756635
       -0.195074    6.004861   -0.423464
       -3.513270   -0.846927    6.539191


  Final cell parameters and derivatives :

--------------------------------------------------------------------------------
       a            5.073747 Angstrom     dE/de1(xx) ************ eV/strain
       b            6.022933 Angstrom     dE/de2(yy) ************ eV/strain
       c            7.471370 Angstrom     dE/de3(zz) ************ eV/strain
       alpha       99.167572 Degrees      dE/de4(yz) ************ eV/strain
       beta       137.684031 Degrees      dE/de5(xz) ************ eV/strain
       gamma       92.541901 Degrees      dE/de6(xy) ************ eV/strain
--------------------------------------------------------------------------------

  Primitive cell volume =           147.157488 Angs**3

  Density of cell =      6.211993 g/cm**3

  Non-primitive cell volume =           147.157488 Angs**3


  Final internal derivatives :

--------------------------------------------------------------------------------
   No.  Atomic          a             b             c           Radius
        Label          (eV)          (eV)          (eV)        (eV/Angs)
--------------------------------------------------------------------------------
      1 O     c       0.000000      0.000000      0.000000      0.000000
      2 O     c **************************** 226167.932621      0.000000
      3 O     c ****************************-226247.770232      0.000000
      4 O     c  -60358.480989************** 293649.884626      0.000000
      5 O     c    -792.634526    181.955489   -628.855257      0.000000
      6 O     c      92.058982     84.457141     12.659252      0.000000
      7 O     c      67.171486    -65.588619   -143.423521      0.000000
      8 O     c     -32.960250     55.238945    -21.492515      0.000000
      9 O     c   60233.9865921642174.954732-293538.516084      0.000000
     10 Sr    c      42.542322   -321.806763    295.695748      0.000000
     11 Sr    c     -29.805207   -272.220127    -30.792509      0.000000
     12 Sr    c      29.674605    114.821557    -69.943779      0.000000
     13 Ti    c     -58.976023    167.581408    448.044873      0.000000
     14 Ti    c     801.132909   -157.818005    553.776535      0.000000
     15 Ti    c     -68.974445    -47.991359    -86.354578      0.000000
--------------------------------------------------------------------------------
  Maximum abs   **************************** 293649.884626      0.000000
--------------------------------------------------------------------------------


  Time to end of optimisation =       0.2546 seconds

 Exiting ------OPTIONS------

  Peak dynamic memory used =       0.60 MB 


  Timing analysis for GULP :

--------------------------------------------------------------------------------
  Task / Subroutine                                          Time (Seconds)
--------------------------------------------------------------------------------
  Calculation of reciprocal space energy and derivatives          0.0207
  Calculation of real space energy and derivatives                0.2236
  Calculation and manipulation of Hessian matrix                  0.0002
  Calculation of matrix inversion                                 0.0008
--------------------------------------------------------------------------------
  Total CPU time                                                  0.2547
--------------------------------------------------------------------------------


  Job Finished at 13:26.15 21st February   2020                               

