********************************************************************************
*                       GENERAL UTILITY LATTICE PROGRAM                        *
*                                 Julian Gale                                  *
*                       Curtin Institute for Computation                       *
*                           Department of Chemistry                            *
*                    Curtin University, Western Australia                      *
********************************************************************************
* Version = 5.1.1 * Last modified =  25th August 2019                          *
********************************************************************************
*  optimise     - perform optimisation run                                     *
*  conp         - constant pressure calculation                                *
*  nosymmetry   - turn off symmetry after initial structure generation         *
*  full         - generate full unit cell when symmetry is removed             *
********************************************************************************
* ASE calculation                                                              *
********************************************************************************


  Job Started  at 11:50.21  4th February   2020                               

  Number of CPUs =     1


  Total number of configurations input =      1

********************************************************************************
*  Input for Configuration =   1                                               *
********************************************************************************

  Formula = O9Sr3Ti3                                                    

  Number of irreducible atoms/shells =      15


  Total number atoms/shells =      15

  Dimensionality = 3               :  Bulk   



  Cartesian lattice vectors (Angstroms) :

        4.000000    0.000000    0.000000
        0.000000    4.000000    0.000000
        0.000000    0.000000    8.000000

  Cell parameters (Angstroms/Degrees):

  a =       4.0000    alpha =  90.0000
  b =       4.0000    beta  =  90.0000
  c =       8.0000    gamma =  90.0000

  Initial cell volume =         128.000000 Angs**3

  Temperature of configuration =  0.000     K 

  Pressure of configuration =         0.000 GPa 

  Fractional coordinates of asymmetric unit :

--------------------------------------------------------------------------------
   No.  Atomic       x           y          z         Charge      Occupancy
        Label      (Frac)      (Frac)     (Frac)        (e)         (Frac)  
--------------------------------------------------------------------------------
      1 O     c    0.000000    0.500000    0.250000    -2.00000    1.000000    
      2 O     c    0.500000 *  0.500000 *  0.250000 *  -2.00000    1.000000    
      3 O     c    0.000000 *  0.500000 *  0.500000 *  -2.00000    1.000000    
      4 O     c    0.500000 *  0.000000 *  0.500000 *  -2.00000    1.000000    
      5 O     c    0.500000 *  0.500000 *  0.750000 *  -2.00000    1.000000    
      6 O     c    0.000000 *  0.000000 *  0.000000 *  -2.00000    1.000000    
      7 O     c    0.000000 *  0.000000 *  0.500000 *  -2.00000    1.000000    
      8 O     c    0.500000 *  0.000000 *  0.000000 *  -2.00000    1.000000    
      9 O     c    0.000000 *  0.500000 *  0.750000 *  -2.00000    1.000000    
     10 Sr    c    0.750000 *  0.250000 *  0.375000 *   2.00000    1.000000    
     11 Sr    c    0.750000 *  0.750000 *  0.875000 *   2.00000    1.000000    
     12 Sr    c    0.750000 *  0.750000 *  0.125000 *   2.00000    1.000000    
     13 Ti    c    0.750000 *  0.250000 *  0.875000 *   4.00000    1.000000    
     14 Ti    c    0.250000 *  0.250000 *  0.125000 *   4.00000    1.000000    
     15 Ti    c    0.250000 *  0.750000 *  0.125000 *   4.00000    1.000000    
--------------------------------------------------------------------------------



********************************************************************************
*  General input information                                                   *
********************************************************************************

  Species output for all configurations : 

--------------------------------------------------------------------------------
  Species    Type    Atomic    Atomic    Charge       Radii (Angs)     Library
                     Number     Mass       (e)     Cova   Ionic  VDW   Symbol
--------------------------------------------------------------------------------
    O        Core        8      16.00  -2.000000   0.730  0.000  1.360          
    Sr       Core       38      87.62   2.000000   1.120  0.000  1.670          
    Ti       Core       22      47.88   4.000000   1.470  0.000  2.190          
--------------------------------------------------------------------------------


  Lattice summation method               =    Ewald          (3-D)
                                         =    Parry          (2-D)
                                         =    Saunders et al (1-D)
  Accuracy factor for lattice sums       =   12.000


  Time limit =      15.00 seconds

  Maximum range for interatomic potentials =    100000.000000 Angstroms

  General interatomic potentials :

--------------------------------------------------------------------------------
Atom  Types   Potential      Parameter       Value         Units   Cutoffs(Ang)
  1     2                                                            Min /  Max 
--------------------------------------------------------------------------------
O    c Sr   c Buckingham    Buckingham A     1952.3900    eV        0.000 10.000
                            Buckingham rho  0.33685000    Ang       
                            Buckingham C     19.220000    eV*Ang^6  
--------------------------------------------------------------------------------
O    c Ti   c Buckingham    Buckingham A     4590.7279    eV        0.000 10.000
                            Buckingham rho  0.26100000    Ang       
                            Buckingham C     0.0000000    eV*Ang^6  
--------------------------------------------------------------------------------
O    c O    c Buckingham    Buckingham A     1388.7700    eV        0.000 10.000
                            Buckingham rho  0.36262000    Ang       
                            Buckingham C     175.00000    eV*Ang^6  
--------------------------------------------------------------------------------
 Calling ------OPTIONS------

********************************************************************************
*  Output for configuration   1                                                *
********************************************************************************


  Components of energy : 

--------------------------------------------------------------------------------
  Interatomic potentials     =         252.05488473 eV    
  Monopole - monopole (real) =        -121.78183040 eV    
  Monopole - monopole (recip)=        -176.23510212 eV    
  Monopole - monopole (total)=        -298.01693251 eV    
--------------------------------------------------------------------------------
  Total lattice energy       =         -45.96204778 eV    
--------------------------------------------------------------------------------
  Total lattice energy       =           -4434.6350 kJ/(mole unit cells)
--------------------------------------------------------------------------------


  Number of variables =       48

  Maximum number of calculations  =          1000
  Maximum Hessian update interval =            10
  Maximum step size               =   1.000000000
  Maximum parameter tolerance     =   0.000010000
  Maximum function  tolerance     =   0.000010000
  Maximum gradient  tolerance     =   0.001000000
  Maximum gradient  component     =   0.010000000

  Cell parameters to be optimised using strains

  Newton-Raphson optimiser to be used

  BFGS hessian update to be used

  Lower half triangular hessian to be used

  Start of bulk optimisation :

  Cycle:      0 Energy:       -45.962048  Gnorm:     36.523722  CPU:    0.016
  ** Hessian calculated **
 Line minimisation2
 ALPHA BEFORE:    1.0000000000000000     
  ** Opt : line minimisation
left   ...       0.00000000     -45.96204778
centre ...       0.25000000     -81.54551253
right  ...       0.50000000    -113.91353225

left   ...       0.00000000     -45.96204778
centre ...       0.25000000     -81.54551253
right  ...       0.50000000    -113.91353225
new    ...       1.50000000    -208.07750629

__s__    ...       1.00000000

left   ...       0.25000000     -81.54551253
centre ...       0.50000000    -113.91353225
right  ...       1.50000000    -208.07750629
new    ...       2.50000000    -244.39449059

__s__    ...       1.00000000

left   ...       0.50000000    -113.91353225
centre ...       1.50000000    -208.07750629
right  ...       2.50000000    -244.39449059
new    ...       2.62781114    -245.63869373

__s__    ...       0.12781114

left   ...       1.50000000    -208.07750629
centre ...       2.50000000    -244.39449059
right  ...       2.62781114    -245.63869373
new    ...       2.77041348    -246.48975918

__s__    ...       0.14260234

left   ...       2.50000000    -244.39449059
centre ...       2.62781114    -245.63869373
right  ...       2.77041348    -246.48975918
new    ...       2.91334482    -247.03209814

__s__    ...       0.14293134

left   ...       2.62781114    -245.63869373
centre ...       2.77041348    -246.48975918
right  ...       2.91334482    -247.03209814
new    ...       3.09109228    -247.86499677

__s__    ...       0.17774745

 ALPHA AFTER:    3.0910922757114716     
  Cycle:      1 Energy:      -247.864997  Gnorm:     22.085294  CPU:    0.030
  ** Hessian calculated **
 Line minimisation2
 ALPHA BEFORE:    1.0000000000000000     
  ** Opt : line minimisation
left   ...       0.00000000    -247.86499677
centre ...       0.25000000    -254.51768533
right  ...       0.50000000    -260.72894940

left   ...       0.00000000    -247.86499677
centre ...       0.25000000    -254.51768533
right  ...       0.50000000    -260.72894940
new    ...       1.50000000    -282.58157326

__s__    ...       1.00000000

left   ...       0.25000000    -254.51768533
centre ...       0.50000000    -260.72894940
right  ...       1.50000000    -282.58157326
new    ...       2.50000000    -306.86387810

__s__    ...       1.00000000

left   ...       0.50000000    -260.72894940
centre ...       1.50000000    -282.58157326
right  ...       2.50000000    -306.86387810
new    ...       3.50000000    -303.55804348

__s__    ...       1.00000000

left   ...       1.50000000    -282.58157326
centre ...       2.50000000    -306.86387810
right  ...       3.50000000    -303.55804348
new    ...       2.88017189    -311.57404592

__s__    ...      -0.61982811

left   ...       2.50000000    -306.86387810
centre ...       2.88017189    -311.57404592
right  ...       3.50000000    -303.55804348
new    ...       2.93472457    -311.79903538

__s__    ...       0.05455268

 ALPHA AFTER:    2.9347245664542561     
  Cycle:      2 Energy:      -311.799035  Gnorm:     20.272927  CPU:    0.044
  ** Hessian calculated **
 Line minimisation2
 ALPHA BEFORE:    1.0000000000000000     
  ** Opt : line minimisation
left   ...       0.00000000    -311.79903538
centre ...       0.25000000    -342.30685764
right  ...       0.50000000    -352.31315302

left   ...       0.00000000    -311.79903538
centre ...       0.25000000    -342.30685764
right  ...       0.50000000    -352.31315302
new    ...       0.49701890    -352.23778181

__s__    ...      -0.00298110

 ALPHA AFTER:   0.50000000000000000     
  Cycle:      3 Energy:      -352.313153  Gnorm:     14.850223  CPU:    0.051
  ** Hessian calculated **
 Line minimisation2
 ALPHA BEFORE:    1.0000000000000000     
  ** Opt : line minimisation
left   ...       0.00000000    -352.31315302
centre ...       0.25000000    -328.48758070
right  ...      -0.25000000    -318.12236381

left   ...      -0.25000000    -318.12236381
centre ...       0.00000000    -352.31315302
right  ...       0.25000000    -328.48758070
new    ...       0.02233253    -348.93441372

__s__    ...       0.27233253

left   ...      -0.25000000    -318.12236381
centre ...       0.00000000    -352.31315302
right  ...       0.02233253    -348.93441372
new    ...      -0.06035089    -360.28915582

__s__    ...      -0.08268342

left   ...      -0.25000000    -318.12236381
centre ...      -0.06035089    -360.28915582
right  ...       0.00000000    -352.31315302
new    ...      -0.07677625    -361.25502704

__s__    ...      -0.01642537

left   ...      -0.25000000    -318.12236381
centre ...      -0.07677625    -361.25502704
right  ...      -0.06035089    -360.28915582
new    ...      -0.08667913    -361.42411081

__s__    ...      -0.00990287

 ALPHA AFTER:    8.6679125936381690E-002
  Cycle:      4 Energy:      -361.424111  Gnorm:     14.184619  CPU:    0.059
  ** Hessian calculated **
 Line minimisation2
 ALPHA BEFORE:    1.0000000000000000     
  ** Opt : line minimisation
left   ...       0.00000000    -361.42411081
centre ...       0.25000000    -339.00357477
right  ...      -0.25000000    -331.35381267

left   ...      -0.25000000    -331.35381267
centre ...       0.00000000    -361.42411081
right  ...       0.25000000    -339.00357477
new    ...       0.01821690    -363.52964886

__s__    ...       0.26821690

left   ...       0.00000000    -361.42411081
centre ...       0.01821690    -363.52964886
right  ...       0.25000000    -339.00357477
new    ...       0.07436561    -369.24176584

__s__    ...       0.05614871

left   ...       0.01821690    -363.52964886
centre ...       0.07436561    -369.24176584
right  ...       0.25000000    -339.00357477
new    ...       0.08933609    -370.36753946

__s__    ...       0.01497047

left   ...       0.07436561    -369.24176584
centre ...       0.08933609    -370.36753946
right  ...       0.25000000    -339.00357477
new    ...       0.10627196    -371.29491957

__s__    ...       0.01693587

left   ...       0.08933609    -370.36753946
centre ...       0.10627196    -371.29491957
right  ...       0.25000000    -339.00357477
new    ...       0.11354634    -371.55139681

__s__    ...       0.00727438

 ALPHA AFTER:   0.11354633616510876     
  Cycle:      5 Energy:      -371.551397  Gnorm:     12.825774  CPU:    0.069
  ** Hessian calculated **
 Line minimisation2
 ALPHA BEFORE:    1.0000000000000000     
  ** Opt : line minimisation
left   ...       0.00000000    -371.55139681
centre ...       0.25000000    -384.96645217
right  ...       0.50000000    -375.22522236

left   ...       0.00000000    -371.55139681
centre ...       0.25000000    -384.96645217
right  ...       0.50000000    -375.22522236
new    ...       0.26983169    -384.95773595

__s__    ...      -0.23016831

left   ...       0.00000000    -371.55139681
centre ...       0.25000000    -384.96645217
right  ...       0.26983169    -384.95773595
new    ...       0.25881978    -384.98655012

__s__    ...      -0.01101191

 ALPHA AFTER:   0.25881977817213114     
  Cycle:      6 Energy:      -384.986550  Gnorm:     11.462755  CPU:    0.076
  ** Hessian calculated **
 Line minimisation2
 ALPHA BEFORE:    1.0000000000000000     
  ** Opt : line minimisation
left   ...       0.00000000    -384.98655012
centre ...       0.16584240    -390.18497763
right  ...       0.33168479    -354.57488012

left   ...       0.00000000    -384.98655012
centre ...       0.16584240    -390.18497763
right  ...       0.33168479    -354.57488012
new    ...       0.16584240    -390.18497763

__s__    ...      -0.16584240

 ALPHA AFTER:   0.16584239574649823     
  Cycle:      7 Energy:      -390.184978  Gnorm:     13.302993  CPU:    0.081
  ** Hessian calculated **
 Line minimisation2
 ALPHA BEFORE:    1.0000000000000000     
  ** Opt : line minimisation
left   ...       0.00000000    -390.18497763
centre ...       0.25000000    -409.58524706
right  ...       0.50000000    -409.48631651

left   ...       0.00000000    -390.18497763
centre ...       0.25000000    -409.58524706
right  ...       0.50000000    -409.48631651
new    ...       0.37373161    -412.42546688

__s__    ...      -0.12626839

left   ...       0.25000000    -409.58524706
centre ...       0.37373161    -412.42546688
right  ...       0.50000000    -409.48631651
new    ...       0.37393006    -412.42606297

__s__    ...       0.00019845

 ALPHA AFTER:   0.37393005699257231     
  Cycle:      8 Energy:      -412.426063  Gnorm:      8.082762  CPU:    0.088
  ** Hessian calculated **
 Line minimisation2
 ALPHA BEFORE:    1.0000000000000000     
  ** Opt : line minimisation
left   ...       0.00000000    -412.42606297
centre ...       0.25000000    -416.53098544
right  ...       0.50000000    -415.54981074

left   ...       0.00000000    -412.42606297
centre ...       0.25000000    -416.53098544
right  ...       0.50000000    -415.54981074
new    ...       0.32677173    -416.81093499

__s__    ...      -0.17322827

left   ...       0.25000000    -416.53098544
centre ...       0.32677173    -416.81093499
right  ...       0.50000000    -415.54981074
new    ...       0.33010175    -416.81195228

__s__    ...       0.00333002

 ALPHA AFTER:   0.33010175322735996     
  Cycle:      9 Energy:      -416.811952  Gnorm:      7.078938  CPU:    0.095
  ** Hessian calculated **
 Line minimisation2
 ALPHA BEFORE:    1.0000000000000000     
  ** Opt : line minimisation
left   ...       0.00000000    -416.81195228
centre ...       0.25000000    -415.40489274
right  ...      -0.25000000    -417.95892809

left   ...      -0.25000000    -417.95892809
centre ...       0.00000000    -416.81195228
right  ...       0.25000000    -415.40489274
new    ...      -1.22750634    -408.88099188

__s__    ...      -0.97750634

left   ...      -1.22750634    -408.88099188
centre ...      -0.25000000    -417.95892809
right  ...       0.00000000    -416.81195228
new    ...      -0.32794732    -418.06809933

__s__    ...       0.89955901

left   ...      -1.22750634    -408.88099188
centre ...      -0.32794732    -418.06809933
right  ...      -0.25000000    -417.95892809
new    ...      -0.34791694    -418.07385182

__s__    ...      -0.01996962

 ALPHA AFTER:   0.34791694353669406     
  Cycle:     10 Energy:      -418.073852  Gnorm:      5.110154  CPU:    0.103
  ** Hessian calculated **
 Line minimisation2
 ALPHA BEFORE:    1.0000000000000000     
  ** Opt : line minimisation
left   ...       0.00000000    -418.07385182
centre ...       0.25000000    -414.99007953
right  ...      -0.25000000    -396.42087681

left   ...      -0.25000000    -396.42087681
centre ...       0.00000000    -418.07385182
right  ...       0.25000000    -414.99007953
new    ...       0.09383410    -424.13732314

__s__    ...       0.34383410

left   ...       0.00000000    -418.07385182
centre ...       0.09383410    -424.13732314
right  ...       0.25000000    -414.99007953
new    ...       0.11248397    -425.41574120

__s__    ...       0.01864988

left   ...       0.09383410    -424.13732314
centre ...       0.11248397    -425.41574120
right  ...       0.25000000    -414.99007953
new    ...       0.14023554    -426.67914100

__s__    ...       0.02775156

left   ...       0.11248397    -425.41574120
centre ...       0.14023554    -426.67914100
right  ...       0.25000000    -414.99007953
new    ...       0.14695101    -426.80907694

__s__    ...       0.00671547

 ALPHA AFTER:   0.14695101241734065     
  Cycle:     11 Energy:      -426.809077  Gnorm:      7.371494  CPU:    0.111
 Line minimisation2
 ALPHA BEFORE:   0.11563551789912753     
  ** Opt : line minimisation
left   ...       0.00000000    -426.80907694
centre ...       0.02890888    -428.64951630
right  ...       0.05781776    -429.12070788

left   ...       0.00000000    -426.80907694
centre ...       0.02890888    -428.64951630
right  ...       0.05781776    -429.12070788
new    ...       0.05331157    -429.14327565

__s__    ...      -0.00450619

 ALPHA AFTER:    5.3311569936673131E-002
  Cycle:     12 Energy:      -429.143276  Gnorm:      7.375547  CPU:    0.115
 Line minimisation2
 ALPHA BEFORE:    6.4202040630014945E-002
  ** Opt : line minimisation
left   ...       0.00000000    -429.14327565
centre ...       0.01605051    -430.41952429
right  ...       0.03210102    -431.55845220

left   ...       0.00000000    -429.14327565
centre ...       0.01605051    -430.41952429
right  ...       0.03210102    -431.55845220
new    ...       0.15719750    -435.54586638

__s__    ...       0.12509648

left   ...       0.01605051    -430.41952429
centre ...       0.03210102    -431.55845220
right  ...       0.15719750    -435.54586638
new    ...       0.15220463    -435.55939306

__s__    ...      -0.00499287

 ALPHA AFTER:   0.15220462834316234     
  Cycle:     13 Energy:      -435.559393  Gnorm:      5.622651  CPU:    0.120
 Line minimisation2
 ALPHA BEFORE:   0.24230125797700391     
  ** Opt : line minimisation
left   ...       0.00000000    -435.55939306
centre ...       0.06057531    -437.66416443
right  ...       0.12115063    -439.28843289

left   ...       0.00000000    -435.55939306
centre ...       0.06057531    -437.66416443
right  ...       0.12115063    -439.28843289
new    ...       0.29562879    -441.37986496

__s__    ...       0.17447816

left   ...       0.06057531    -437.66416443
centre ...       0.12115063    -439.28843289
right  ...       0.29562879    -441.37986496
new    ...       0.30340179    -441.38964870

__s__    ...       0.00777299

 ALPHA AFTER:   0.30340178528827899     
  Cycle:     14 Energy:      -441.389649  Gnorm:      3.531371  CPU:    0.125
 Line minimisation2
 ALPHA BEFORE:   0.65680658518430390     
  ** Opt : line minimisation
left   ...       0.00000000    -441.38964870
centre ...       0.16420165    -443.12323760
right  ...       0.32840329    -444.45835047

left   ...       0.00000000    -441.38964870
centre ...       0.16420165    -443.12323760
right  ...       0.32840329    -444.45835047
new    ...       0.79646788    -445.80189989

__s__    ...       0.46806459

left   ...       0.16420165    -443.12323760
centre ...       0.32840329    -444.45835047
right  ...       0.79646788    -445.80189989
new    ...       0.73493631    -445.84953073

__s__    ...      -0.06153157

 ALPHA AFTER:   0.73493631402828141     
  Cycle:     15 Energy:      -445.849531  Gnorm:      2.224239  CPU:    0.130
 Line minimisation2
 ALPHA BEFORE:    1.1824518049091588     
  ** Opt : line minimisation
left   ...       0.00000000    -445.84953073
centre ...       0.29561295    -446.75748771
right  ...       0.59122590    -447.22775624

left   ...       0.00000000    -445.84953073
centre ...       0.29561295    -446.75748771
right  ...       0.59122590    -447.22775624
new    ...       0.76103683    -447.29220357

__s__    ...       0.16981092

 ALPHA AFTER:   0.76103682594326061     
  Cycle:     16 Energy:      -447.292204  Gnorm:      2.286167  CPU:    0.134
 Line minimisation2
 ALPHA BEFORE:   0.52853578830132930     
  ** Opt : line minimisation
left   ...       0.00000000    -447.29220357
centre ...       0.13213395    -447.71422370
right  ...       0.26426789    -447.97554168

left   ...       0.00000000    -447.29220357
centre ...       0.13213395    -447.71422370
right  ...       0.26426789    -447.97554168
new    ...       0.41306409    -448.06956758

__s__    ...       0.14879620

 ALPHA AFTER:   0.41306408956838303     
  Cycle:     17 Energy:      -448.069568  Gnorm:      2.112340  CPU:    0.139
 Line minimisation2
 ALPHA BEFORE:   0.46056256659695777     
  ** Opt : line minimisation
left   ...       0.00000000    -448.06956758
centre ...       0.11514064    -448.33113306
right  ...       0.23028128    -448.51312599

left   ...       0.00000000    -448.06956758
centre ...       0.11514064    -448.33113306
right  ...       0.23028128    -448.51312599
new    ...       0.43605280    -448.64262403

__s__    ...       0.20577151

left   ...       0.11514064    -448.33113306
centre ...       0.23028128    -448.51312599
right  ...       0.43605280    -448.64262403
new    ...       0.43931790    -448.64268498

__s__    ...       0.00326511

 ALPHA AFTER:   0.43931790268593840     
  Cycle:     18 Energy:      -448.642685  Gnorm:      2.005778  CPU:    0.145
  ** Hessian calculated **
 Line minimisation2
 ALPHA BEFORE:    1.0000000000000000     
  ** Opt : line minimisation
left   ...       0.00000000    -448.64268498
centre ...       0.25000000    -450.23870036
right  ...       0.50000000    -451.03885447

left   ...       0.00000000    -448.64268498
centre ...       0.25000000    -450.23870036
right  ...       0.50000000    -451.03885447
new    ...       0.62634849    -451.15115584

__s__    ...       0.12634849

 ALPHA AFTER:   0.62634849156820505     
  Cycle:     19 Energy:      -451.151156  Gnorm:      1.469544  CPU:    0.153
 Line minimisation2
 ALPHA BEFORE:   0.92948147350053612     
  ** Opt : line minimisation
left   ...       0.00000000    -451.15115584
centre ...       0.23237037    -451.62419338
right  ...       0.46474074    -451.97926259

left   ...       0.00000000    -451.15115584
centre ...       0.23237037    -451.62419338
right  ...       0.46474074    -451.97926259
new    ...       1.04795992    -452.30988236

__s__    ...       0.58321919

left   ...       0.23237037    -451.62419338
centre ...       0.46474074    -451.97926259
right  ...       1.04795992    -452.30988236
new    ...       0.99686987    -452.31461157

__s__    ...      -0.05109006

 ALPHA AFTER:   0.99686986701926616     
  Cycle:     20 Energy:      -452.314612  Gnorm:      1.650339  CPU:    0.159
 Line minimisation2
 ALPHA BEFORE:   0.72175688936653126     
  ** Opt : line minimisation
left   ...       0.00000000    -452.31461157
centre ...       0.18043922    -452.72923618
right  ...       0.36087844    -453.03123975

left   ...       0.00000000    -452.31461157
centre ...       0.18043922    -452.72923618
right  ...       0.36087844    -453.03123975
new    ...       0.75452308    -453.28301511

__s__    ...       0.39364464

left   ...       0.18043922    -452.72923618
centre ...       0.36087844    -453.03123975
right  ...       0.75452308    -453.28301511
new    ...       0.73523669    -453.28435174

__s__    ...      -0.01928640

 ALPHA AFTER:   0.73523668557488131     
  Cycle:     21 Energy:      -453.284352  Gnorm:      1.487926  CPU:    0.165
 Line minimisation2
 ALPHA BEFORE:   0.98466877133851083     
  ** Opt : line minimisation
left   ...       0.00000000    -453.28435174
centre ...       0.24616719    -453.77890496
right  ...       0.49233439    -454.14090867

left   ...       0.00000000    -453.28435174
centre ...       0.24616719    -453.77890496
right  ...       0.49233439    -454.14090867
new    ...       1.04155375    -454.47054907

__s__    ...       0.54921937

left   ...       0.24616719    -453.77890496
centre ...       0.49233439    -454.14090867
right  ...       1.04155375    -454.47054907
new    ...       1.04119165    -454.47054920

__s__    ...      -0.00036210

 ALPHA AFTER:    1.0411916504884817     
  Cycle:     22 Energy:      -454.470549  Gnorm:      1.697050  CPU:    0.171
 Line minimisation2
 ALPHA BEFORE:    1.0705837500128110     
  ** Opt : line minimisation
left   ...       0.00000000    -454.47054920
centre ...       0.26764594    -454.94774365
right  ...       0.53529188    -455.23897063

left   ...       0.00000000    -454.47054920
centre ...       0.26764594    -454.94774365
right  ...       0.53529188    -455.23897063
new    ...       0.82060523    -455.34665296

__s__    ...       0.28531336

 ALPHA AFTER:   0.82060523226348181     
  Cycle:     23 Energy:      -455.346653  Gnorm:      1.110412  CPU:    0.175
 Line minimisation2
 ALPHA BEFORE:   0.64206807373140085     
  ** Opt : line minimisation
left   ...       0.00000000    -455.34665296
centre ...       0.16051702    -455.58335691
right  ...       0.32103404    -455.77894734

left   ...       0.00000000    -455.34665296
centre ...       0.16051702    -455.58335691
right  ...       0.32103404    -455.77894734
new    ...       1.00440769    -456.12682296

__s__    ...       0.68337365

left   ...       0.16051702    -455.58335691
centre ...       0.32103404    -455.77894734
right  ...       1.00440769    -456.12682296
new    ...       0.96548347    -456.12914375

__s__    ...      -0.03892421

 ALPHA AFTER:   0.96548347392253597     
  Cycle:     24 Energy:      -456.129144  Gnorm:      0.944073  CPU:    0.179
 Line minimisation2
 ALPHA BEFORE:    1.1919123910002438     
  ** Opt : line minimisation
left   ...       0.00000000    -456.12914375
centre ...       0.29797810    -456.43734930
right  ...       0.59595620    -456.62859893

left   ...       0.00000000    -456.12914375
centre ...       0.29797810    -456.43734930
right  ...       0.59595620    -456.62859893
new    ...       0.93422943    -456.69635796

__s__    ...       0.33827324

 ALPHA AFTER:   0.93422943259187385     
  Cycle:     25 Energy:      -456.696358  Gnorm:      0.858590  CPU:    0.183
 Line minimisation2
 ALPHA BEFORE:   0.98734903725131562     
  ** Opt : line minimisation
left   ...       0.00000000    -456.69635796
centre ...       0.24683726    -456.91542519
right  ...       0.49367452    -457.07030417

left   ...       0.00000000    -456.69635796
centre ...       0.24683726    -456.91542519
right  ...       0.49367452    -457.07030417
new    ...       0.96584620    -457.19405801

__s__    ...       0.47217169

left   ...       0.24683726    -456.91542519
centre ...       0.49367452    -457.07030417
right  ...       0.96584620    -457.19405801
new    ...       0.98765570    -457.19462311

__s__    ...       0.02180949

 ALPHA AFTER:   0.98765569536630005     
  Cycle:     26 Energy:      -457.194623  Gnorm:      0.849261  CPU:    0.188
 Line minimisation2
 ALPHA BEFORE:   0.78060456432711467     
  ** Opt : line minimisation
left   ...       0.00000000    -457.19462311
centre ...       0.19515114    -457.37982416
right  ...       0.39030228    -457.50927317

left   ...       0.00000000    -457.19462311
centre ...       0.19515114    -457.37982416
right  ...       0.39030228    -457.50927317
new    ...       0.74584252    -457.60041312

__s__    ...       0.35554024

left   ...       0.19515114    -457.37982416
centre ...       0.39030228    -457.50927317
right  ...       0.74584252    -457.60041312
new    ...       0.74150076    -457.60051453

__s__    ...      -0.00434176

 ALPHA AFTER:   0.74150075534747117     
  Cycle:     27 Energy:      -457.600515  Gnorm:      0.825133  CPU:    0.193
 Line minimisation2
 ALPHA BEFORE:    1.2498535664005517     
  ** Opt : line minimisation
left   ...       0.00000000    -457.60051453
centre ...       0.31246339    -457.81818092
right  ...       0.62492678    -457.93476907

left   ...       0.00000000    -457.60051453
centre ...       0.31246339    -457.81818092
right  ...       0.62492678    -457.93476907
new    ...       0.82910433    -457.95714171

__s__    ...       0.20417755

 ALPHA AFTER:   0.82910433078035672     
  Cycle:     28 Energy:      -457.957142  Gnorm:      0.509826  CPU:    0.196
  ** Hessian calculated **
 Line minimisation2
 ALPHA BEFORE:    1.0000000000000000     
  ** Opt : line minimisation
left   ...       0.00000000    -457.95714171
centre ...       0.25000000    -458.06876343
right  ...       0.50000000    -458.11201566

left   ...       0.00000000    -457.95714171
centre ...       0.25000000    -458.06876343
right  ...       0.50000000    -458.11201566
new    ...       0.53315621    -458.11263597

__s__    ...       0.03315621

 ALPHA AFTER:   0.53315620926323815     
  Cycle:     29 Energy:      -458.112636  Gnorm:      0.415601  CPU:    0.202
 Line minimisation2
 ALPHA BEFORE:   0.77126009832810827     
  ** Opt : line minimisation
left   ...       0.00000000    -458.11263597
centre ...       0.19281502    -458.14632813
right  ...       0.38563005    -458.17303746

left   ...       0.00000000    -458.11263597
centre ...       0.19281502    -458.14632813
right  ...       0.38563005    -458.17303746
new    ...       1.02673992    -458.21035419

__s__    ...       0.64110987

left   ...       0.19281502    -458.14632813
centre ...       0.38563005    -458.17303746
right  ...       1.02673992    -458.21035419
new    ...       1.00836293    -458.21041647

__s__    ...      -0.01837699

 ALPHA AFTER:    1.0083629294018062     
  Cycle:     30 Energy:      -458.210416  Gnorm:      0.446607  CPU:    0.207
 Line minimisation2
 ALPHA BEFORE:   0.92843180596001706     
  ** Opt : line minimisation
left   ...       0.00000000    -458.21041647
centre ...       0.23210795    -458.25414209
right  ...       0.46421590    -458.28486871

left   ...       0.00000000    -458.21041647
centre ...       0.23210795    -458.25414209
right  ...       0.46421590    -458.28486871
new    ...       0.89681091    -458.30776127

__s__    ...       0.43259501

left   ...       0.23210795    -458.25414209
centre ...       0.46421590    -458.28486871
right  ...       0.89681091    -458.30776127
new    ...       0.90185000    -458.30776496

__s__    ...       0.00503909

 ALPHA AFTER:   0.90185000012352234     
  Cycle:     31 Energy:      -458.307765  Gnorm:      0.441190  CPU:    0.211
 Line minimisation2
 ALPHA BEFORE:   0.78796799429886577     
  ** Opt : line minimisation
left   ...       0.00000000    -458.30776496
centre ...       0.19699200    -458.35207393
right  ...       0.39398400    -458.38963775

left   ...       0.00000000    -458.30776496
centre ...       0.19699200    -458.35207393
right  ...       0.39398400    -458.38963775
new    ...       1.39253799    -458.46703647

__s__    ...       0.99855399

left   ...       0.19699200    -458.35207393
centre ...       0.39398400    -458.38963775
right  ...       1.39253799    -458.46703647
new    ...       1.30265683    -458.46814289

__s__    ...      -0.08988116

 ALPHA AFTER:    1.3026568282139019     
  Cycle:     32 Energy:      -458.468143  Gnorm:      0.533792  CPU:    0.216
 Line minimisation2
 ALPHA BEFORE:    1.0473896739910529     
  ** Opt : line minimisation
left   ...       0.00000000    -458.46814289
centre ...       0.26184742    -458.54183753
right  ...       0.52369484    -458.59949130

left   ...       0.00000000    -458.46814289
centre ...       0.26184742    -458.54183753
right  ...       0.52369484    -458.59949130
new    ...       1.33389752    -458.67424719

__s__    ...       0.81020268

left   ...       0.26184742    -458.54183753
centre ...       0.52369484    -458.59949130
right  ...       1.33389752    -458.67424719
new    ...       1.31545095    -458.67410623

__s__    ...      -0.01844657

 ALPHA AFTER:    1.3338975200617986     
  Cycle:     33 Energy:      -458.674247  Gnorm:      0.499464  CPU:    0.223
 Line minimisation2
 ALPHA BEFORE:    1.0805602990422891     
  ** Opt : line minimisation
left   ...       0.00000000    -458.67424719
centre ...       0.27014007    -458.77521544
right  ...       0.54028015    -458.85486628

left   ...       0.00000000    -458.67424719
centre ...       0.27014007    -458.77521544
right  ...       0.54028015    -458.85486628
new    ...       1.41456701    -458.93553355

__s__    ...       0.87428686

left   ...       0.27014007    -458.77521544
centre ...       0.54028015    -458.85486628
right  ...       1.41456701    -458.93553355
new    ...       1.23803704    -458.94423078

__s__    ...      -0.17652997

 ALPHA AFTER:    1.2380370386407962     
  Cycle:     34 Energy:      -458.944231  Gnorm:      0.669604  CPU:    0.232
 Line minimisation2
 ALPHA BEFORE:   0.87478870580049461     
  ** Opt : line minimisation
left   ...       0.00000000    -458.94423078
centre ...       0.21869718    -459.06736248
right  ...       0.43739435    -459.16128578

left   ...       0.00000000    -458.94423078
centre ...       0.21869718    -459.06736248
right  ...       0.43739435    -459.16128578
new    ...       1.03129413    -459.24412861

__s__    ...       0.59389977

left   ...       0.21869718    -459.06736248
centre ...       0.43739435    -459.16128578
right  ...       1.03129413    -459.24412861
new    ...       0.92978820    -459.24978537

__s__    ...      -0.10150593

 ALPHA AFTER:   0.92978819967597071     
  Cycle:     35 Energy:      -459.249785  Gnorm:      0.779687  CPU:    0.240
 Line minimisation2
 ALPHA BEFORE:    1.2754350430972365     
  ** Opt : line minimisation
left   ...       0.00000000    -459.24978537
centre ...       0.31885876    -459.41133532
right  ...       0.63771752    -459.53588874

left   ...       0.00000000    -459.24978537
centre ...       0.31885876    -459.41133532
right  ...       0.63771752    -459.53588874
new    ...       1.55176569    -459.68460186

__s__    ...       0.91404817

left   ...       0.31885876    -459.41133532
centre ...       0.63771752    -459.53588874
right  ...       1.55176569    -459.68460186
new    ...       1.53477736    -459.68465219

__s__    ...      -0.01698833

 ALPHA AFTER:    1.5347773625976997     
  Cycle:     36 Energy:      -459.684652  Gnorm:      0.562241  CPU:    0.249
 Line minimisation2
 ALPHA BEFORE:    1.2716775513181064     
  ** Opt : line minimisation
left   ...       0.00000000    -459.68465219
centre ...       0.31791939    -459.86740287
right  ...       0.63583878    -460.00608462

left   ...       0.00000000    -459.68465219
centre ...       0.31791939    -459.86740287
right  ...       0.63583878    -460.00608462
new    ...       1.47734842    -460.13410203

__s__    ...       0.84150964

left   ...       0.31791939    -459.86740287
centre ...       0.63583878    -460.00608462
right  ...       1.47734842    -460.13410203
new    ...       1.36702852    -460.13937221

__s__    ...      -0.11031990

 ALPHA AFTER:    1.3670285221000467     
  Cycle:     37 Energy:      -460.139372  Gnorm:      0.835098  CPU:    0.257
 Line minimisation2
 ALPHA BEFORE:   0.91135234806669774     
  ** Opt : line minimisation
left   ...       0.00000000    -460.13937221
centre ...       0.22783809    -460.26052012
right  ...       0.45567617    -460.35020567

left   ...       0.00000000    -460.13937221
centre ...       0.22783809    -460.26052012
right  ...       0.45567617    -460.35020567
new    ...       0.99122462    -460.36891967

__s__    ...       0.53554845

 ALPHA AFTER:   0.99122462336035388     
  Cycle:     38 Energy:      -460.368920  Gnorm:      1.058634  CPU:    0.264
  ** Hessian calculated **
 Line minimisation2
 ALPHA BEFORE:    1.0000000000000000     
  ** Opt : line minimisation
left   ...       0.00000000    -460.36891967
centre ...       0.25000000    -460.59363022
right  ...       0.50000000    -460.79860651

left   ...       0.00000000    -460.36891967
centre ...       0.25000000    -460.59363022
right  ...       0.50000000    -460.79860651
new    ...       1.50000000    -461.26426836

__s__    ...       1.00000000

left   ...       0.25000000    -460.59363022
centre ...       0.50000000    -460.79860651
right  ...       1.50000000    -461.26426836
new    ...       1.82157837    -461.24959479

__s__    ...       0.32157837

 ALPHA AFTER:    1.5000000000000000     
  Cycle:     39 Energy:      -461.264268  Gnorm:      0.812616  CPU:    0.276
  ** Hessian calculated **
 Line minimisation2
 ALPHA BEFORE:    1.0000000000000000     
  ** Opt : line minimisation
left   ...       0.00000000    -461.26426836
centre ...       0.25000000    -461.43847807
right  ...       0.50000000    -461.54844327

left   ...       0.00000000    -461.26426836
centre ...       0.25000000    -461.43847807
right  ...       0.50000000    -461.54844327
new    ...       0.80291669    -461.56643432

__s__    ...       0.30291669

 ALPHA AFTER:   0.80291669251989783     
  Cycle:     40 Energy:      -461.566434  Gnorm:      0.381460  CPU:    0.284
  ** Hessian calculated **
 Line minimisation2
 ALPHA BEFORE:    1.0000000000000000     
  ** Opt : line minimisation
left   ...       0.00000000    -461.56643432
centre ...       0.25000000    -461.62754866
right  ...       0.50000000    -461.64132199

left   ...       0.00000000    -461.56643432
centre ...       0.25000000    -461.62754866
right  ...       0.50000000    -461.64132199
new    ...       0.44773462    -461.64236267

__s__    ...      -0.05226538

 ALPHA AFTER:   0.44773462496012306     
  Cycle:     41 Energy:      -461.642363  Gnorm:      0.228506  CPU:    0.291
 Line minimisation2
 ALPHA BEFORE:   0.66542959600685503     
  ** Opt : line minimisation
left   ...       0.00000000    -461.64236267
centre ...       0.16635740    -461.65650060
right  ...       0.33271480    -461.66731573

left   ...       0.00000000    -461.64236267
centre ...       0.16635740    -461.65650060
right  ...       0.33271480    -461.66731573
new    ...       0.79099887    -461.67888485

__s__    ...       0.45828407

left   ...       0.16635740    -461.65650060
centre ...       0.33271480    -461.66731573
right  ...       0.79099887    -461.67888485
new    ...       0.76012091    -461.67891706

__s__    ...      -0.03087796

 ALPHA AFTER:   0.76012090879662719     
  Cycle:     42 Energy:      -461.678917  Gnorm:      0.194068  CPU:    0.297
 Line minimisation2
 ALPHA BEFORE:   0.90587072609083086     
  ** Opt : line minimisation
left   ...       0.00000000    -461.67891706
centre ...       0.22646768    -461.69073138
right  ...       0.45293536    -461.69950990

left   ...       0.00000000    -461.67891706
centre ...       0.22646768    -461.69073138
right  ...       0.45293536    -461.69950990
new    ...       0.99457314    -461.70908432

__s__    ...       0.54163778

left   ...       0.22646768    -461.69073138
centre ...       0.45293536    -461.69950990
right  ...       0.99457314    -461.70908432
new    ...       1.04571276    -461.70908317

__s__    ...       0.05113962

 ALPHA AFTER:   0.99457314129309071     
  Cycle:     43 Energy:      -461.709084  Gnorm:      0.191899  CPU:    0.303
 Line minimisation2
 ALPHA BEFORE:    1.2191065393793852     
  ** Opt : line minimisation
left   ...       0.00000000    -461.70908432
centre ...       0.30477663    -461.71995716
right  ...       0.60955327    -461.72588517

left   ...       0.00000000    -461.70908432
centre ...       0.30477663    -461.71995716
right  ...       0.60955327    -461.72588517
new    ...       0.82254019    -461.72701164

__s__    ...       0.21298692

 ALPHA AFTER:   0.82254018825977215     
  Cycle:     44 Energy:      -461.727012  Gnorm:      0.179589  CPU:    0.308
 Line minimisation2
 ALPHA BEFORE:   0.63432410946184248     
  ** Opt : line minimisation
left   ...       0.00000000    -461.72701164
centre ...       0.15858103    -461.73362006
right  ...       0.31716205    -461.73882873

left   ...       0.00000000    -461.72701164
centre ...       0.15858103    -461.73362006
right  ...       0.31716205    -461.73882873
new    ...       0.82797086    -461.74720816

__s__    ...       0.51080881

left   ...       0.15858103    -461.73362006
centre ...       0.31716205    -461.73882873
right  ...       0.82797086    -461.74720816
new    ...       0.90650818    -461.74731100

__s__    ...       0.07853731

 ALPHA AFTER:   0.90650817881378576     
  Cycle:     45 Energy:      -461.747311  Gnorm:      0.208973  CPU:    0.314
 Line minimisation2
 ALPHA BEFORE:   0.87079440534829922     
  ** Opt : line minimisation
left   ...       0.00000000    -461.74731100
centre ...       0.21769860    -461.75652920
right  ...       0.43539720    -461.76410153

left   ...       0.00000000    -461.74731100
centre ...       0.21769860    -461.75652920
right  ...       0.43539720    -461.76410153
new    ...       1.32813376    -461.78022389

__s__    ...       0.89273656

left   ...       0.21769860    -461.75652920
centre ...       0.43539720    -461.76410153
right  ...       1.32813376    -461.78022389
new    ...       1.48131798    -461.78065167

__s__    ...       0.15318421

 ALPHA AFTER:    1.4813179785725128     
  Cycle:     46 Energy:      -461.780652  Gnorm:      0.218945  CPU:    0.321
 Line minimisation2
 ALPHA BEFORE:   0.98754531904834186     
  ** Opt : line minimisation
left   ...       0.00000000    -461.78065167
centre ...       0.24688633    -461.79458987
right  ...       0.49377266    -461.80698035

left   ...       0.00000000    -461.78065167
centre ...       0.24688633    -461.79458987
right  ...       0.49377266    -461.80698035
new    ...       1.49377266    -461.83881520

__s__    ...       1.00000000

left   ...       0.24688633    -461.79458987
centre ...       0.49377266    -461.80698035
right  ...       1.49377266    -461.83881520
new    ...       2.07524073    -461.84293342

__s__    ...       0.58146807

 ALPHA AFTER:    2.0752407276282541     
  Cycle:     47 Energy:      -461.842933  Gnorm:      0.324228  CPU:    0.330
 Line minimisation2
 ALPHA BEFORE:    1.3834938184188361     
  ** Opt : line minimisation
left   ...       0.00000000    -461.84293342
centre ...       0.34587345    -461.87530511
right  ...       0.69174691    -461.90462722

left   ...       0.00000000    -461.84293342
centre ...       0.34587345    -461.87530511
right  ...       0.69174691    -461.90462722
new    ...       1.69174691    -461.98112694

__s__    ...       1.00000000

left   ...       0.34587345    -461.87530511
centre ...       0.69174691    -461.90462722
right  ...       1.69174691    -461.98112694
new    ...       2.69174691    -462.04816672

__s__    ...       1.00000000

left   ...       0.69174691    -461.90462722
centre ...       1.69174691    -461.98112694
right  ...       2.69174691    -462.04816672
new    ...       3.69174691    -462.10588069

__s__    ...       1.00000000

left   ...       1.69174691    -461.98112694
centre ...       2.69174691    -462.04816672
right  ...       3.69174691    -462.10588069
new    ...       4.69174691    -462.15214073

__s__    ...       1.00000000

 ALPHA AFTER:    4.6917469092094182     
  Cycle:     48 Energy:      -462.152141  Gnorm:      1.227440  CPU:    0.343
 Line minimisation2
 ALPHA BEFORE:    3.1278312728062785     
  ** Opt : line minimisation
left   ...       0.00000000    -462.15214073
centre ...       0.78195782    -462.26294213
right  ...       1.56391564    -462.32541501

left   ...       0.00000000    -462.15214073
centre ...       0.78195782    -462.26294213
right  ...       1.56391564    -462.32541501
new    ...       2.18375110    -462.29695432

__s__    ...       0.61983546

 ALPHA AFTER:    1.5639156364031392     
  Cycle:     49 Energy:      -462.325415  Gnorm:      1.772930  CPU:    0.351
  ** Hessian calculated **
 Line minimisation2
 ALPHA BEFORE:    1.0000000000000000     
  ** Opt : line minimisation
left   ...       0.00000000    -462.32541501
centre ...       0.25000000    -463.08252883
right  ...       0.50000000    -463.28976092

left   ...       0.00000000    -462.32541501
centre ...       0.25000000    -463.08252883
right  ...       0.50000000    -463.28976092
new    ...       0.46921666    -463.29635916

__s__    ...      -0.03078334

 ALPHA AFTER:   0.46921665997967732     
  Cycle:     50 Energy:      -463.296359  Gnorm:      1.094894  CPU:    0.362
 Line minimisation2
 ALPHA BEFORE:   0.64042593212514720     
  ** Opt : line minimisation
left   ...       0.00000000    -463.29635916
centre ...       0.16010648    -463.52147099
right  ...       0.32021297    -463.70813563

left   ...       0.00000000    -463.29635916
centre ...       0.16010648    -463.52147099
right  ...       0.32021297    -463.70813563
new    ...       1.01749147    -464.09360392

__s__    ...       0.69727850

left   ...       0.16010648    -463.52147099
centre ...       0.32021297    -463.70813563
right  ...       1.01749147    -464.09360392
new    ...       1.05541978    -464.09482117

__s__    ...       0.03792831

 ALPHA AFTER:    1.0554197803289211     
  Cycle:     51 Energy:      -464.094821  Gnorm:      1.065516  CPU:    0.372
 Line minimisation2
 ALPHA BEFORE:   0.75418822805405183     
  ** Opt : line minimisation
left   ...       0.00000000    -464.09482117
centre ...       0.18854706    -464.37669407
right  ...       0.37709411    -464.61235977

left   ...       0.00000000    -464.09482117
centre ...       0.18854706    -464.37669407
right  ...       0.37709411    -464.61235977
new    ...       1.24444749    -464.87036426

__s__    ...       0.86735338

left   ...       0.18854706    -464.37669407
centre ...       0.37709411    -464.61235977
right  ...       1.24444749    -464.87036426
new    ...       0.97565748    -464.96574629

__s__    ...      -0.26879001

 ALPHA AFTER:   0.97565747959433757     
  Cycle:     52 Energy:      -464.965746  Gnorm:      0.870052  CPU:    0.382
 Line minimisation2
 ALPHA BEFORE:    1.0523389255965243     
  ** Opt : line minimisation
left   ...       0.00000000    -464.96574629
centre ...       0.26308473    -465.27058667
right  ...       0.52616946    -465.47494983

left   ...       0.00000000    -464.96574629
centre ...       0.26308473    -465.27058667
right  ...       0.52616946    -465.47494983
new    ...       0.92972179    -465.57560150

__s__    ...       0.40355233

 ALPHA AFTER:   0.92972179188653448     
  Cycle:     53 Energy:      -465.575601  Gnorm:      0.945176  CPU:    0.390
 Line minimisation2
 ALPHA BEFORE:    1.1910634470082184     
  ** Opt : line minimisation
left   ...       0.00000000    -465.57560150
centre ...       0.29776586    -465.91719088
right  ...       0.59553172    -466.06438285

left   ...       0.00000000    -465.57560150
centre ...       0.29776586    -465.91719088
right  ...       0.59553172    -466.06438285
new    ...       0.67210828    -466.07133931

__s__    ...       0.07657656

 ALPHA AFTER:   0.67210828403007516     
  Cycle:     54 Energy:      -466.071339  Gnorm:      0.633859  CPU:    0.398
 Line minimisation2
 ALPHA BEFORE:    1.0141425623225448     
  ** Opt : line minimisation
left   ...       0.00000000    -466.07133931
centre ...       0.25353564    -466.20334052
right  ...       0.50707128    -466.30293564

left   ...       0.00000000    -466.07133931
centre ...       0.25353564    -466.20334052
right  ...       0.50707128    -466.30293564
new    ...       1.15950639    -466.41027824

__s__    ...       0.65243511

left   ...       0.25353564    -466.20334052
centre ...       0.50707128    -466.30293564
right  ...       1.15950639    -466.41027824
new    ...       1.15973776    -466.41027818

__s__    ...       0.00023137

 ALPHA AFTER:    1.1595063947380868     
  Cycle:     55 Energy:      -466.410278  Gnorm:      0.494803  CPU:    0.409
 Line minimisation2
 ALPHA BEFORE:    1.1695134382180570     
  ** Opt : line minimisation
left   ...       0.00000000    -466.41027824
centre ...       0.29237836    -466.51935134
right  ...       0.58475672    -466.59443906

left   ...       0.00000000    -466.41027824
centre ...       0.29237836    -466.51935134
right  ...       0.58475672    -466.59443906
new    ...       1.08455213    -466.64570424

__s__    ...       0.49979541

left   ...       0.29237836    -466.51935134
centre ...       0.58475672    -466.59443906
right  ...       1.08455213    -466.64570424
new    ...       1.09805126    -466.64573638

__s__    ...       0.01349914

 ALPHA AFTER:    1.0980512613381563     
  Cycle:     56 Energy:      -466.645736  Gnorm:      0.471440  CPU:    0.419
 Line minimisation2
 ALPHA BEFORE:    1.3792480903450586     
  ** Opt : line minimisation
left   ...       0.00000000    -466.64573638
centre ...       0.34481202    -466.72792327
right  ...       0.68962405    -466.77045737

left   ...       0.00000000    -466.64573638
centre ...       0.34481202    -466.72792327
right  ...       0.68962405    -466.77045737
new    ...       0.88708531    -466.77684000

__s__    ...       0.19746126

 ALPHA AFTER:   0.88708530851511713     
  Cycle:     57 Energy:      -466.776840  Gnorm:      0.341735  CPU:    0.427
 Line minimisation2
 ALPHA BEFORE:    1.2261781757996637     
  ** Opt : line minimisation
left   ...       0.00000000    -466.77684000
centre ...       0.30654454    -466.83113873
right  ...       0.61308909    -466.87308012

left   ...       0.00000000    -466.77684000
centre ...       0.30654454    -466.83113873
right  ...       0.61308909    -466.87308012
new    ...       1.50024326    -466.92613662

__s__    ...       0.88715417

left   ...       0.30654454    -466.83113873
centre ...       0.61308909    -466.87308012
right  ...       1.50024326    -466.92613662
new    ...       1.52014620    -466.92598097

__s__    ...       0.01990294

 ALPHA AFTER:    1.5002432564559971     
  Cycle:     58 Energy:      -466.926137  Gnorm:      0.359675  CPU:    0.437
 Line minimisation2
 ALPHA BEFORE:    1.1429213242640590     
  ** Opt : line minimisation
left   ...       0.00000000    -466.92613662
centre ...       0.28573033    -466.97209591
right  ...       0.57146066    -467.00597607

left   ...       0.00000000    -466.92613662
centre ...       0.28573033    -466.97209591
right  ...       0.57146066    -467.00597607
new    ...       1.23002718    -467.03076775

__s__    ...       0.65856652

left   ...       0.28573033    -466.97209591
centre ...       0.57146066    -467.00597607
right  ...       1.23002718    -467.03076775
new    ...       1.12036824    -467.03192856

__s__    ...      -0.10965894

 ALPHA AFTER:    1.1203682389018648     
  Cycle:     59 Energy:      -467.031929  Gnorm:      0.230602  CPU:    0.448
  ** Hessian calculated **
 Line minimisation2
 ALPHA BEFORE:    1.0000000000000000     
  ** Opt : line minimisation
left   ...       0.00000000    -467.03192856
centre ...       0.25000000    -467.04366249
right  ...       0.50000000    -467.05530114

left   ...       0.00000000    -467.03192856
centre ...       0.25000000    -467.04366249
right  ...       0.50000000    -467.05530114
new    ...       1.50000000    -467.09829755

__s__    ...       1.00000000

left   ...       0.25000000    -467.04366249
centre ...       0.50000000    -467.05530114
right  ...       1.50000000    -467.09829755
new    ...       2.50000000    -467.13518443

__s__    ...       1.00000000

left   ...       0.50000000    -467.05530114
centre ...       1.50000000    -467.09829755
right  ...       2.50000000    -467.13518443
new    ...       3.50000000    -467.16550584

__s__    ...       1.00000000

left   ...       1.50000000    -467.09829755
centre ...       2.50000000    -467.13518443
right  ...       3.50000000    -467.16550584
new    ...       4.50000000    -467.18656910

__s__    ...       1.00000000

 ALPHA AFTER:    4.5000000000000000     
  Cycle:     60 Energy:      -467.186569  Gnorm:      0.159618  CPU:    0.465
 Line minimisation2
 ALPHA BEFORE:    3.0000000000000000     
  ** Opt : line minimisation
left   ...       0.00000000    -467.18656910
centre ...       0.75000000    -467.19641009
right  ...       1.50000000    -467.17770773

left   ...       0.00000000    -467.18656910
centre ...       0.75000000    -467.19641009
right  ...       1.50000000    -467.17770773
new    ...       0.63358003    -467.19628504

__s__    ...      -0.86641997

left   ...       0.63358003    -467.19628504
centre ...       0.75000000    -467.19641009
right  ...       1.50000000    -467.17770773
new    ...       0.70967867    -467.19643778

__s__    ...       0.07609864

 ALPHA AFTER:   0.70967867087274805     
  Cycle:     61 Energy:      -467.196438  Gnorm:      0.146237  CPU:    0.475
  ** Hessian calculated **
 Line minimisation2
 ALPHA BEFORE:    1.0000000000000000     
  ** Opt : line minimisation
left   ...       0.00000000    -467.19643778
centre ...       0.25000000    -467.20788407
right  ...       0.50000000    -467.21470975

left   ...       0.00000000    -467.19643778
centre ...       0.25000000    -467.20788407
right  ...       0.50000000    -467.21470975
new    ...       0.74430595    -467.21689615

__s__    ...       0.24430595

 ALPHA AFTER:   0.74430594787837667     
  Cycle:     62 Energy:      -467.216896  Gnorm:      0.108430  CPU:    0.486
 Line minimisation2
 ALPHA BEFORE:   0.91487635563531089     
  ** Opt : line minimisation
left   ...       0.00000000    -467.21689615
centre ...       0.22871909    -467.22176069
right  ...       0.45743818    -467.22545022

left   ...       0.00000000    -467.21689615
centre ...       0.22871909    -467.22176069
right  ...       0.45743818    -467.22545022
new    ...       1.06124979    -467.22957499

__s__    ...       0.60381161

left   ...       0.22871909    -467.22176069
centre ...       0.45743818    -467.22545022
right  ...       1.06124979    -467.22957499
new    ...       1.06510725    -467.22958119

__s__    ...       0.00385746

 ALPHA AFTER:    1.0651072479924777     
  Cycle:     63 Energy:      -467.229581  Gnorm:      0.096843  CPU:    0.496
 Line minimisation2
 ALPHA BEFORE:   0.84272671117007636     
  ** Opt : line minimisation
left   ...       0.00000000    -467.22958119
centre ...       0.21068168    -467.23325586
right  ...       0.42136336    -467.23649372

left   ...       0.00000000    -467.22958119
centre ...       0.21068168    -467.23325586
right  ...       0.42136336    -467.23649372
new    ...       1.42136336    -467.24415882

__s__    ...       1.00000000

left   ...       0.21068168    -467.23325586
centre ...       0.42136336    -467.23649372
right  ...       1.42136336    -467.24415882
new    ...       1.52369413    -467.24417275

__s__    ...       0.10233077

 ALPHA AFTER:    1.5236941269579356     
  Cycle:     64 Energy:      -467.244173  Gnorm:      0.132724  CPU:    0.506
 Line minimisation2
 ALPHA BEFORE:    1.0872607960874376     
  ** Opt : line minimisation
left   ...       0.00000000    -467.24417275
centre ...       0.27181520    -467.25115484
right  ...       0.54363040    -467.25590335

left   ...       0.00000000    -467.24417275
centre ...       0.27181520    -467.25115484
right  ...       0.54363040    -467.25590335
new    ...       0.98559189    -467.25898432

__s__    ...       0.44196149

left   ...       0.27181520    -467.25115484
centre ...       0.54363040    -467.25590335
right  ...       0.98559189    -467.25898432
new    ...       1.00158959    -467.25898019

__s__    ...       0.01599770

 ALPHA AFTER:   0.98559188551103638     
  Cycle:     65 Energy:      -467.258984  Gnorm:      0.151039  CPU:    0.517
 Line minimisation2
 ALPHA BEFORE:    2.4204588504001303     
  ** Opt : line minimisation
left   ...       0.00000000    -467.25898432
centre ...       0.60511471    -467.26942569
right  ...       1.21022943    -467.27428389

left   ...       0.00000000    -467.25898432
centre ...       0.60511471    -467.26942569
right  ...       1.21022943    -467.27428389
new    ...       1.43421473    -467.27479355

__s__    ...       0.22398531

 ALPHA AFTER:    1.4342147323830226     
  Cycle:     66 Energy:      -467.274794  Gnorm:      0.177855  CPU:    0.525
 Line minimisation2
 ALPHA BEFORE:   0.95614315492201507     
  ** Opt : line minimisation
left   ...       0.00000000    -467.27479355
centre ...       0.23903579    -467.28109369
right  ...       0.47807158    -467.28632864

left   ...       0.00000000    -467.27479355
centre ...       0.23903579    -467.28109369
right  ...       0.47807158    -467.28632864
new    ...       1.47807158    -467.29645697

__s__    ...       1.00000000

left   ...       0.23903579    -467.28109369
centre ...       0.47807158    -467.28632864
right  ...       1.47807158    -467.29645697
new    ...       1.51109151    -467.29646784

__s__    ...       0.03301994

 ALPHA AFTER:    1.5110915141429009     
  Cycle:     67 Energy:      -467.296468  Gnorm:      0.220265  CPU:    0.535
 Line minimisation2
 ALPHA BEFORE:    1.0073943427619338     
  ** Opt : line minimisation
left   ...       0.00000000    -467.29646784
centre ...       0.25184859    -467.30227429
right  ...       0.50369717    -467.30783584

left   ...       0.00000000    -467.29646784
centre ...       0.25184859    -467.30227429
right  ...       0.50369717    -467.30783584
new    ...       1.50369717    -467.32518479

__s__    ...       1.00000000

left   ...       0.25184859    -467.30227429
centre ...       0.50369717    -467.30783584
right  ...       1.50369717    -467.32518479
new    ...       2.50369717    -467.33542259

__s__    ...       1.00000000

left   ...       0.50369717    -467.30783584
centre ...       1.50369717    -467.32518479
right  ...       2.50369717    -467.33542259
new    ...       3.44338090    -467.33776332

__s__    ...       0.93968373

 ALPHA AFTER:    3.4433808983998997     
  Cycle:     68 Energy:      -467.337763  Gnorm:      0.180798  CPU:    0.547
 Line minimisation2
 ALPHA BEFORE:    2.2955872655999330     
  ** Opt : line minimisation
left   ...       0.00000000    -467.33776332
centre ...       0.57389682    -467.34894245
right  ...       1.14779363    -467.35676150

left   ...       0.00000000    -467.33776332
centre ...       0.57389682    -467.34894245
right  ...       1.14779363    -467.35676150
new    ...       2.14779363    -467.36095313

__s__    ...       1.00000000

 ALPHA AFTER:    2.1477936327999663     
  Cycle:     69 Energy:      -467.360953  Gnorm:      0.179294  CPU:    0.556
 Line minimisation2
 ALPHA BEFORE:    1.4318624218666440     
  ** Opt : line minimisation
left   ...       0.00000000    -467.36095313
centre ...       0.35796561    -467.37444765
right  ...       0.71593121    -467.38658527

left   ...       0.00000000    -467.36095313
centre ...       0.35796561    -467.37444765
right  ...       0.71593121    -467.38658527
new    ...       1.71593121    -467.40512014

__s__    ...       1.00000000

left   ...       0.35796561    -467.37444765
centre ...       0.71593121    -467.38658527
right  ...       1.71593121    -467.40512014
new    ...       2.03459967    -467.40634845

__s__    ...       0.31866846

 ALPHA AFTER:    2.0345996721457302     
  Cycle:     70 Energy:      -467.406348  Gnorm:      0.250508  CPU:    0.567
 Line minimisation2
 ALPHA BEFORE:    2.1089277943789675     
  ** Opt : line minimisation
left   ...       0.00000000    -467.40634845
centre ...       0.52723195    -467.45693147
right  ...       1.05446390    -467.49032944

left   ...       0.00000000    -467.40634845
centre ...       0.52723195    -467.45693147
right  ...       1.05446390    -467.49032944
new    ...       1.81548697    -467.50234826

__s__    ...       0.76102307

 ALPHA AFTER:    1.8154869712430612     
  Cycle:     71 Energy:      -467.502348  Gnorm:      0.410776  CPU:    0.576
  ** Hessian calculated **
 Line minimisation2
 ALPHA BEFORE:    1.0000000000000000     
  ** Opt : line minimisation
left   ...       0.00000000    -467.50234826
centre ...       0.25000000    -467.55411850
right  ...       0.50000000    -467.57885405

left   ...       0.00000000    -467.50234826
centre ...       0.25000000    -467.55411850
right  ...       0.50000000    -467.57885405
new    ...       0.60373881    -467.58104646

__s__    ...       0.10373881

 ALPHA AFTER:   0.60373881469392654     
  Cycle:     72 Energy:      -467.581046  Gnorm:      0.275771  CPU:    0.588
 Line minimisation2
 ALPHA BEFORE:   0.90995915223940949     
  ** Opt : line minimisation
left   ...       0.00000000    -467.58104646
centre ...       0.22748979    -467.60474470
right  ...       0.45497958    -467.62266884

left   ...       0.00000000    -467.58104646
centre ...       0.22748979    -467.60474470
right  ...       0.45497958    -467.62266884
new    ...       1.04741549    -467.65341123

__s__    ...       0.59243592

left   ...       0.22748979    -467.60474470
centre ...       0.45497958    -467.62266884
right  ...       1.04741549    -467.65341123
new    ...       1.54205282    -467.65791470

__s__    ...       0.49463733

 ALPHA AFTER:    1.5420528229299646     
  Cycle:     73 Energy:      -467.657915  Gnorm:      0.361111  CPU:    0.599
 Line minimisation2
 ALPHA BEFORE:    1.6898261775197865     
  ** Opt : line minimisation
left   ...       0.00000000    -467.65791470
centre ...       0.42245654    -467.68886682
right  ...       0.84491309    -467.70255308

left   ...       0.00000000    -467.65791470
centre ...       0.42245654    -467.68886682
right  ...       0.84491309    -467.70255308
new    ...       0.96855667    -467.70239495

__s__    ...       0.12364358

 ALPHA AFTER:   0.84491308875989324     
  Cycle:     74 Energy:      -467.702553  Gnorm:      0.276488  CPU:    0.609
 Line minimisation2
 ALPHA BEFORE:   0.56327539250659553     
  ** Opt : line minimisation
left   ...       0.00000000    -467.70255308
centre ...       0.14081885    -467.71740473
right  ...       0.28163770    -467.73115672

left   ...       0.00000000    -467.70255308
centre ...       0.14081885    -467.71740473
right  ...       0.28163770    -467.73115672
new    ...       1.28163770    -467.79596355

__s__    ...       1.00000000

left   ...       0.14081885    -467.71740473
centre ...       0.28163770    -467.73115672
right  ...       1.28163770    -467.79596355
new    ...       1.90693298    -467.80793928

__s__    ...       0.62529529

 ALPHA AFTER:    1.9069329823754020     
  Cycle:     75 Energy:      -467.807939  Gnorm:      0.322404  CPU:    0.620
 Line minimisation2
 ALPHA BEFORE:    1.2712886549169347     
  ** Opt : line minimisation
left   ...       0.00000000    -467.80793928
centre ...       0.31782216    -467.85381631
right  ...       0.63564433    -467.89325459

left   ...       0.00000000    -467.80793928
centre ...       0.31782216    -467.85381631
right  ...       0.63564433    -467.89325459
new    ...       1.63564433    -467.97413643

__s__    ...       1.00000000

left   ...       0.31782216    -467.85381631
centre ...       0.63564433    -467.89325459
right  ...       1.63564433    -467.97413643
new    ...       2.36909152    -467.99165854

__s__    ...       0.73344720

 ALPHA AFTER:    2.3690915236080934     
  Cycle:     76 Energy:      -467.991659  Gnorm:      0.460172  CPU:    0.631
 Line minimisation2
 ALPHA BEFORE:    1.5793943490720621     
  ** Opt : line minimisation
left   ...       0.00000000    -467.99165854
centre ...       0.39484859    -468.06764090
right  ...       0.78969717    -468.11620407

left   ...       0.00000000    -467.99165854
centre ...       0.39484859    -468.06764090
right  ...       0.78969717    -468.11620407
new    ...       1.29160392    -468.13595943

__s__    ...       0.50190675

 ALPHA AFTER:    1.2916039221213733     
  Cycle:     77 Energy:      -468.135959  Gnorm:      0.350142  CPU:    0.641
 Line minimisation2
 ALPHA BEFORE:    2.7171591283595204     
  ** Opt : line minimisation
left   ...       0.00000000    -468.13595943
centre ...       0.67928978    -468.23872463
right  ...       1.35857956    -468.28577711

left   ...       0.00000000    -468.13595943
centre ...       0.67928978    -468.23872463
right  ...       1.35857956    -468.28577711
new    ...       1.59263230    -468.28885619

__s__    ...       0.23405273

 ALPHA AFTER:    1.5926322972761855     
  Cycle:     78 Energy:      -468.288856  Gnorm:      0.462625  CPU:    0.650
 Line minimisation2
 ALPHA BEFORE:    1.0617548648507902     
  ** Opt : line minimisation
left   ...       0.00000000    -468.28885619
centre ...       0.26543872    -468.33665985
right  ...       0.53087743    -468.37371179

left   ...       0.00000000    -468.28885619
centre ...       0.26543872    -468.33665985
right  ...       0.53087743    -468.37371179
new    ...       1.31289662    -468.42337657

__s__    ...       0.78201919

left   ...       0.26543872    -468.33665985
centre ...       0.53087743    -468.37371179
right  ...       1.31289662    -468.42337657
new    ...       1.35907895    -468.42362268

__s__    ...       0.04618233

 ALPHA AFTER:    1.3590789475807716     
  Cycle:     79 Energy:      -468.423623  Gnorm:      0.508759  CPU:    0.662
 Line minimisation2
 ALPHA BEFORE:   0.90605263172051442     
  ** Opt : line minimisation
left   ...       0.00000000    -468.42362268
centre ...       0.22651316    -468.47375590
right  ...       0.45302632    -468.51509992

left   ...       0.00000000    -468.42362268
centre ...       0.22651316    -468.47375590
right  ...       0.45302632    -468.51509992
new    ...       1.40527847    -468.57943014

__s__    ...       0.95225215

left   ...       0.22651316    -468.47375590
centre ...       0.45302632    -468.51509992
right  ...       1.40527847    -468.57943014
new    ...       1.27547754    -468.58171173

__s__    ...      -0.12980093

 ALPHA AFTER:    1.2754775383168850     
  Cycle:     80 Energy:      -468.581712  Gnorm:      0.295646  CPU:    0.674
 Line minimisation2
 ALPHA BEFORE:    3.2335931023957762     
  ** Opt : line minimisation
left   ...       0.00000000    -468.58171173
centre ...       0.80839828    -468.66753004
right  ...       1.61679655    -468.67292742

left   ...       0.00000000    -468.58171173
centre ...       0.80839828    -468.66753004
right  ...       1.61679655    -468.67292742
new    ...       1.26685232    -468.68032140

__s__    ...      -0.34994423

 ALPHA AFTER:    1.2668523164870817     
  Cycle:     81 Energy:      -468.680321  Gnorm:      0.291730  CPU:    0.683
  ** Hessian calculated **
 Line minimisation2
 ALPHA BEFORE:    1.0000000000000000     
  ** Opt : line minimisation
left   ...       0.00000000    -468.68032140
centre ...       0.25000000    -468.68746954
right  ...       0.50000000    -468.69399715

left   ...       0.00000000    -468.68032140
centre ...       0.25000000    -468.68746954
right  ...       0.50000000    -468.69399715
new    ...       1.50000000    -468.71998372

__s__    ...       1.00000000

left   ...       0.25000000    -468.68746954
centre ...       0.50000000    -468.69399715
right  ...       1.50000000    -468.71998372
new    ...       2.50000000    -468.74811048

__s__    ...       1.00000000

left   ...       0.50000000    -468.69399715
centre ...       1.50000000    -468.71998372
right  ...       2.50000000    -468.74811048
new    ...       3.50000000    -468.77789918

__s__    ...       1.00000000

left   ...       1.50000000    -468.71998372
centre ...       2.50000000    -468.74811048
right  ...       3.50000000    -468.77789918
new    ...       4.50000000    -468.80683309

__s__    ...       1.00000000

left   ...       2.50000000    -468.74811048
centre ...       3.50000000    -468.77789918
right  ...       4.50000000    -468.80683309
new    ...       5.50000000    -468.83179863

__s__    ...       1.00000000

 ALPHA AFTER:    5.5000000000000000     
  Cycle:     82 Energy:      -468.831799  Gnorm:      0.272440  CPU:    0.706
 Line minimisation2
 ALPHA BEFORE:    3.6666666666666661     
  ** Opt : line minimisation
left   ...       0.00000000    -468.83179863
centre ...       0.91666667    -468.85187011
right  ...       1.83333333    -468.83514383

left   ...       0.00000000    -468.83179863
centre ...       0.91666667    -468.85187011
right  ...       1.83333333    -468.83514383
new    ...       0.95833269    -468.85178061

__s__    ...      -0.87500064

left   ...       0.00000000    -468.83179863
centre ...       0.91666667    -468.85187011
right  ...       0.95833269    -468.85178061
new    ...       0.89469308    -468.85172020

__s__    ...      -0.06363961

 ALPHA AFTER:   0.91666666666666652     
  Cycle:     83 Energy:      -468.851870  Gnorm:      0.320913  CPU:    0.718
  ** Hessian calculated **
 Line minimisation2
 ALPHA BEFORE:    1.0000000000000000     
  ** Opt : line minimisation
left   ...       0.00000000    -468.85187011
centre ...       0.25000000    -468.88642473
right  ...       0.50000000    -468.90359044

left   ...       0.00000000    -468.85187011
centre ...       0.25000000    -468.88642473
right  ...       0.50000000    -468.90359044
new    ...       0.62179117    -468.90564999

__s__    ...       0.12179117

 ALPHA AFTER:   0.62179117312665599     
  Cycle:     84 Energy:      -468.905650  Gnorm:      0.227849  CPU:    0.731
 Line minimisation2
 ALPHA BEFORE:   0.62258902365891178     
  ** Opt : line minimisation
left   ...       0.00000000    -468.90564999
centre ...       0.15564726    -468.91876816
right  ...       0.31129451    -468.92972987

left   ...       0.00000000    -468.90564999
centre ...       0.15564726    -468.91876816
right  ...       0.31129451    -468.92972987
new    ...       1.02465435    -468.95226624

__s__    ...       0.71335984

left   ...       0.15564726    -468.91876816
centre ...       0.31129451    -468.92972987
right  ...       1.02465435    -468.95226624
new    ...       1.02144120    -468.95226929

__s__    ...      -0.00321315

 ALPHA AFTER:    1.0214412018719834     
  Cycle:     85 Energy:      -468.952269  Gnorm:      0.195783  CPU:    0.743
 Line minimisation2
 ALPHA BEFORE:    1.3630007629081513     
  ** Opt : line minimisation
left   ...       0.00000000    -468.95226929
centre ...       0.34075019    -468.96809491
right  ...       0.68150038    -468.98042250

left   ...       0.00000000    -468.95226929
centre ...       0.34075019    -468.96809491
right  ...       0.68150038    -468.98042250
new    ...       1.68150038    -468.99736427

__s__    ...       1.00000000

left   ...       0.34075019    -468.96809491
centre ...       0.68150038    -468.98042250
right  ...       1.68150038    -468.99736427
new    ...       1.77192043    -468.99735433

__s__    ...       0.09042005

 ALPHA AFTER:    1.6815003814540757     
  Cycle:     86 Energy:      -468.997364  Gnorm:      0.209711  CPU:    0.755
 Line minimisation2
 ALPHA BEFORE:    1.1210002543027171     
  ** Opt : line minimisation
left   ...       0.00000000    -468.99736427
centre ...       0.28025006    -469.01480736
right  ...       0.56050013    -469.02800234

left   ...       0.00000000    -468.99736427
centre ...       0.28025006    -469.01480736
right  ...       0.56050013    -469.02800234
new    ...       1.29085620    -469.04248062

__s__    ...       0.73035608

left   ...       0.28025006    -469.01480736
centre ...       0.56050013    -469.02800234
right  ...       1.29085620    -469.04248062
new    ...       1.29314632    -469.04248068

__s__    ...       0.00229012

 ALPHA AFTER:    1.2931463212749561     
  Cycle:     87 Energy:      -469.042481  Gnorm:      0.280194  CPU:    0.767
 Line minimisation2
 ALPHA BEFORE:    1.2522499993031282     
  ** Opt : line minimisation
left   ...       0.00000000    -469.04248068
centre ...       0.31306250    -469.06124646
right  ...       0.62612500    -469.07634852

left   ...       0.00000000    -469.04248068
centre ...       0.31306250    -469.06124646
right  ...       0.62612500    -469.07634852
new    ...       1.62612500    -469.10005491

__s__    ...       1.00000000

left   ...       0.31306250    -469.06124646
centre ...       0.62612500    -469.07634852
right  ...       1.62612500    -469.10005491
new    ...       1.76052571    -469.10056084

__s__    ...       0.13440071

 ALPHA AFTER:    1.7605257053775833     
  Cycle:     88 Energy:      -469.100561  Gnorm:      0.279137  CPU:    0.780
 Line minimisation2
 ALPHA BEFORE:    1.1736838035850554     
  ** Opt : line minimisation
left   ...       0.00000000    -469.10056084
centre ...       0.29342095    -469.12555487
right  ...       0.58684190    -469.14592188

left   ...       0.00000000    -469.10056084
centre ...       0.29342095    -469.12555487
right  ...       0.58684190    -469.14592188
new    ...       1.58684190    -469.18108615

__s__    ...       1.00000000

left   ...       0.29342095    -469.12555487
centre ...       0.58684190    -469.14592188
right  ...       1.58684190    -469.18108615
new    ...       1.75085441    -469.18173328

__s__    ...       0.16401250

 ALPHA AFTER:    1.7508544053884694     
  Cycle:     89 Energy:      -469.181733  Gnorm:      0.393627  CPU:    0.792
 Line minimisation2
 ALPHA BEFORE:    1.1672362702589796     
  ** Opt : line minimisation
left   ...       0.00000000    -469.18173328
centre ...       0.29180907    -469.21527712
right  ...       0.58361814    -469.24711588

left   ...       0.00000000    -469.18173328
centre ...       0.29180907    -469.21527712
right  ...       0.58361814    -469.24711588
new    ...       1.58361814    -469.31772344

__s__    ...       1.00000000

left   ...       0.29180907    -469.21527712
centre ...       0.58361814    -469.24711588
right  ...       1.58361814    -469.31772344
new    ...       2.26816280    -469.32972397

__s__    ...       0.68454467

 ALPHA AFTER:    2.2681628040310624     
  Cycle:     90 Energy:      -469.329724  Gnorm:      0.422751  CPU:    0.805
 Line minimisation2
 ALPHA BEFORE:    1.7277165161577499     
  ** Opt : line minimisation
left   ...       0.00000000    -469.32972397
centre ...       0.43192913    -469.44167400
right  ...       0.86385826    -469.52195568

left   ...       0.00000000    -469.32972397
centre ...       0.43192913    -469.44167400
right  ...       0.86385826    -469.52195568
new    ...       1.74286688    -469.57028658

__s__    ...       0.87900862

left   ...       0.43192913    -469.44167400
centre ...       0.86385826    -469.52195568
right  ...       1.74286688    -469.57028658
new    ...       1.57871968    -469.57385628

__s__    ...      -0.16414720

 ALPHA AFTER:    1.5787196841067659     
  Cycle:     91 Energy:      -469.573856  Gnorm:      0.431593  CPU:    0.817
 Line minimisation2
 ALPHA BEFORE:    1.3661373632323548     
  ** Opt : line minimisation
left   ...       0.00000000    -469.57385628
centre ...       0.34153434    -469.68390947
right  ...       0.68306868    -469.71674386

left   ...       0.00000000    -469.57385628
centre ...       0.34153434    -469.68390947
right  ...       0.68306868    -469.71674386
new    ...       0.65752611    -469.71717104

__s__    ...      -0.02554257

 ALPHA AFTER:   0.65752610962815483     
  Cycle:     92 Energy:      -469.717171  Gnorm:      0.401441  CPU:    0.827
 Line minimisation2
 ALPHA BEFORE:   0.70245941592195005     
  ** Opt : line minimisation
left   ...       0.00000000    -469.71717104
centre ...       0.17561485    -469.77293777
right  ...       0.35122971    -469.82006021

left   ...       0.00000000    -469.71717104
centre ...       0.17561485    -469.77293777
right  ...       0.35122971    -469.82006021
new    ...       1.22074791    -469.89748768

__s__    ...       0.86951821

left   ...       0.17561485    -469.77293777
centre ...       0.35122971    -469.82006021
right  ...       1.22074791    -469.89748768
new    ...       1.04553904    -469.90595092

__s__    ...      -0.17520887

 ALPHA AFTER:    1.0455390423789395     
  Cycle:     93 Energy:      -469.905951  Gnorm:      0.353053  CPU:    0.839
  ** Hessian calculated **
 Line minimisation2
 ALPHA BEFORE:    1.0000000000000000     
  ** Opt : line minimisation
left   ...       0.00000000    -469.90595092
centre ...       0.25000000    -469.93850970
right  ...       0.50000000    -469.95753274

left   ...       0.00000000    -469.90595092
centre ...       0.25000000    -469.93850970
right  ...       0.50000000    -469.95753274
new    ...       0.72634825    -469.96318197

__s__    ...       0.22634825

 ALPHA AFTER:   0.72634824648821350     
  Cycle:     94 Energy:      -469.963182  Gnorm:      0.264435  CPU:    0.852
 Line minimisation2
 ALPHA BEFORE:   0.78679647598736024     
  ** Opt : line minimisation
left   ...       0.00000000    -469.96318197
centre ...       0.19669912    -469.97873864
right  ...       0.39339824    -469.99123788

left   ...       0.00000000    -469.96318197
centre ...       0.19669912    -469.97873864
right  ...       0.39339824    -469.99123788
new    ...       1.09918674    -470.00818583

__s__    ...       0.70578851

[...]

left   ...       0.28249376    -470.14478250
centre ...       0.56498751    -470.14704318
right  ...       1.14825942    -470.15030253
new    ...       1.85846850    -470.14764679

__s__    ...       0.71020908

left   ...       0.56498751    -470.14704318
centre ...       1.14825942    -470.15030253
right  ...       1.85846850    -470.14764679
new    ...       1.24408483    -470.15025047

__s__    ...      -0.61438367

left   ...       0.56498751    -470.14704318
centre ...       1.14825942    -470.15030253
right  ...       1.24408483    -470.15025047
new    ...       1.16608661    -470.15030057

__s__    ...      -0.07799821

 ALPHA AFTER:    1.1482594180652701     
  Cycle:    102 Energy:      -470.150303  Gnorm:      0.082544  CPU:    0.946
 Line minimisation2
 ALPHA BEFORE:    2.0614329284872506     
  ** Opt : line minimisation
left   ...       0.00000000    -470.15030253
centre ...       0.51535823    -470.15402325
right  ...       1.03071646    -470.15650164

left   ...       0.00000000    -470.15030253
centre ...       0.51535823    -470.15402325
right  ...       1.03071646    -470.15650164
new    ...       1.80116092    -470.15791071

__s__    ...       0.77044445

 ALPHA AFTER:    1.8011609176085175     
  Cycle:    103 Energy:      -470.157911  Gnorm:      0.091305  CPU:    0.956
  ** Hessian calculated **
 Line minimisation2
 ALPHA BEFORE:    1.0000000000000000     
  ** Opt : line minimisation
left   ...       0.00000000    -470.15791071
centre ...       0.25000000    -470.15976698
right  ...       0.50000000    -470.16159617

left   ...       0.00000000    -470.15791071
centre ...       0.25000000    -470.15976698
right  ...       0.50000000    -470.16159617
new    ...       1.50000000    -470.16823752

__s__    ...       1.00000000

left   ...       0.25000000    -470.15976698
centre ...       0.50000000    -470.16159617
right  ...       1.50000000    -470.16823752
new    ...       2.50000000    -470.17400244

__s__    ...       1.00000000

left   ...       0.50000000    -470.16159617
centre ...       1.50000000    -470.16823752
right  ...       2.50000000    -470.17400244
new    ...       3.50000000    -470.17936991

__s__    ...       1.00000000

left   ...       1.50000000    -470.16823752
centre ...       2.50000000    -470.17400244
right  ...       3.50000000    -470.17936991
new    ...       4.50000000    -470.18397421

__s__    ...       1.00000000

 ALPHA AFTER:    4.5000000000000000     
  Cycle:    104 Energy:      -470.183974  Gnorm:      0.073523  CPU:    0.975
 Line minimisation2
 ALPHA BEFORE:    3.0000000000000000     
  ** Opt : line minimisation
left   ...       0.00000000    -470.18397421
centre ...       0.75000000    -470.18832579
right  ...       1.50000000    -470.19209114

left   ...       0.00000000    -470.18397421
centre ...       0.75000000    -470.18832579
right  ...       1.50000000    -470.19209114
new    ...       2.50000000    -470.19458147

__s__    ...       1.00000000

left   ...       0.75000000    -470.18832579
centre ...       1.50000000    -470.19209114
right  ...       2.50000000    -470.19458147
new    ...       2.86124193    -470.19553755

__s__    ...       0.36124193

 ALPHA AFTER:    2.8612419293458444     
  Cycle:    105 Energy:      -470.195538  Gnorm:      0.065783  CPU:    0.987
 Line minimisation2
 ALPHA BEFORE:    1.9074946195638964     
  ** Opt : line minimisation
left   ...       0.00000000    -470.19553755
centre ...       0.47687365    -470.19738667
right  ...       0.95374731    -470.19920877

left   ...       0.00000000    -470.19553755
centre ...       0.47687365    -470.19738667
right  ...       0.95374731    -470.19920877
new    ...       1.95374731    -470.20115679

__s__    ...       1.00000000

left   ...       0.47687365    -470.19738667
centre ...       0.95374731    -470.19920877
right  ...       1.95374731    -470.20115679
new    ...       2.22179580    -470.19985735

__s__    ...       0.26804849

left   ...       0.95374731    -470.19920877
centre ...       1.95374731    -470.20115679
right  ...       2.22179580    -470.19985735
new    ...       1.63549111    -470.20065974

__s__    ...      -0.58630469

 ALPHA AFTER:    1.9537473097819482     
  Cycle:    106 Energy:      -470.201157  Gnorm:      0.048932  CPU:    1.000
 Line minimisation2
 ALPHA BEFORE:    1.3024982065212989     
  ** Opt : line minimisation
left   ...       0.00000000    -470.20115679
centre ...       0.32562455    -470.20041347
right  ...      -0.32562455    -470.20024898

left   ...      -0.32562455    -470.20024898
centre ...       0.00000000    -470.20115679
right  ...       0.32562455    -470.20041347
new    ...       0.01621974    -470.20120495

__s__    ...       0.34184429

left   ...       0.00000000    -470.20115679
centre ...       0.01621974    -470.20120495
right  ...       0.32562455    -470.20041347
new    ...       0.09557541    -470.19985773

__s__    ...       0.07935567

left   ...       0.00000000    -470.20115679
centre ...       0.01621974    -470.20120495
right  ...       0.09557541    -470.19985773
new    ...       0.01522423    -470.20120202

__s__    ...      -0.08035118

left   ...       0.01522423    -470.20120202
centre ...       0.01621974    -470.20120495
right  ...       0.09557541    -470.19985773
new    ...       0.02167158    -470.19964610

__s__    ...       0.00644735

left   ...       0.01522423    -470.20120202
centre ...       0.01621974    -470.20120495
right  ...       0.02167158    -470.19964610
new    ...       0.01575492    -470.20120358

__s__    ...      -0.00591666

left   ...       0.01575492    -470.20120358
centre ...       0.01621974    -470.20120495
right  ...       0.02167158    -470.19964610
new    ...       0.01601754    -470.20120436

__s__    ...       0.00026263

 ALPHA AFTER:    1.6219735970864846E-002
  Cycle:    107 Energy:      -470.201205  Gnorm:      0.048573  CPU:    1.021
 Line minimisation2
 ALPHA BEFORE:    1.0813157313909897E-002
  ** Opt : line minimisation
left   ...       0.00000000    -470.20120495
centre ...       0.00270329    -470.19964268
right  ...      -0.00270329    -470.20119226

left   ...      -0.00270329    -470.20119226
centre ...       0.00000000    -470.20120495
right  ...       0.00270329    -470.19964268
new    ...      -0.00132986    -470.20119872

__s__    ...       0.00137342

left   ...      -0.00132986    -470.20119872
centre ...       0.00000000    -470.20120495
right  ...       0.00270329    -470.19964268
new    ...      -0.00064869    -470.20120191

__s__    ...       0.00068117

left   ...      -0.00064869    -470.20120191
centre ...       0.00000000    -470.20120495
right  ...       0.00270329    -470.19964268
new    ...      -0.00031086    -470.20120350

__s__    ...       0.00033784

left   ...      -0.00031086    -470.20120350
centre ...       0.00000000    -470.20120495
right  ...       0.00270329    -470.19964268
new    ...      -0.00014330    -470.20120428

__s__    ...       0.00016756

left   ...      -0.00014330    -470.20120428
centre ...       0.00000000    -470.20120495
right  ...       0.00270329    -470.19964268
new    ...      -0.00006019    -470.20120467

__s__    ...       0.00008310

 ALPHA AFTER:   -6.0193560835905357E-005
  Cycle:    108 Energy:      -470.201205  Gnorm:      0.048573  CPU:    1.039
  ** Hessian calculated **
 Line minimisation2
 ALPHA BEFORE:    1.0000000000000000     
  ** Opt : line minimisation
left   ...       0.00000000    -470.20120495
centre ...       0.25000000    -470.20059821
right  ...      -0.25000000    -470.19970584

left   ...      -0.25000000    -470.19970584
centre ...       0.00000000    -470.20120495
right  ...       0.25000000    -470.20059821
new    ...       0.05296975    -470.19987959

__s__    ...       0.30296975

left   ...      -0.25000000    -470.19970584
centre ...       0.00000000    -470.20120495
right  ...       0.05296975    -470.19987959
new    ...      -0.09571425    -470.20069410

__s__    ...      -0.14868400

left   ...      -0.09571425    -470.20069410
centre ...       0.00000000    -470.20120495
right  ...       0.05296975    -470.19987959
new    ...      -0.03478715    -470.20102833

__s__    ...       0.06092710

left   ...      -0.03478715    -470.20102833
centre ...       0.00000000    -470.20120495
right  ...       0.05296975    -470.19987959
new    ...      -0.00999186    -470.20115528

__s__    ...       0.02479529

left   ...      -0.00999186    -470.20115528
centre ...       0.00000000    -470.20120495
right  ...       0.05296975    -470.19987959
new    ...       0.00022214    -470.20120605

__s__    ...       0.01021400

left   ...       0.00000000    -470.20120495
centre ...       0.00022214    -470.20120605
right  ...       0.05296975    -470.19987959
new    ...       0.00445062    -470.19965186

__s__    ...       0.00422848

 ALPHA AFTER:    2.2213941998157523E-004
  Cycle:    109 Energy:      -470.201206  Gnorm:      0.048551  CPU:    1.063
 Line minimisation2
 ALPHA BEFORE:    2.3587395258156839E-004
  ** Opt : line minimisation
left   ...       0.00000000    -470.20120605
centre ...       0.00005897    -470.20120632
right  ...       0.00011794    -470.19963160

left   ...       0.00000000    -470.20120605
centre ...       0.00005897    -470.20120632
right  ...       0.00011794    -470.19963160
new    ...       0.00002949    -470.20120618

__s__    ...      -0.00008844

 ALPHA AFTER:    5.8968488145392098E-005
  Cycle:    110 Energy:      -470.201206  Gnorm:      0.048546  CPU:    1.072
 Line minimisation2
 ALPHA BEFORE:    5.9176940002388127E-005
  ** Opt : line minimisation
left   ...       0.00000000    -470.20120632
centre ...       0.00001479    -470.20120639
right  ...       0.00002959    -470.19963147

left   ...       0.00000000    -470.20120632
centre ...       0.00001479    -470.20120639
right  ...       0.00002959    -470.19963147
new    ...       0.00000740    -470.20120635

__s__    ...      -0.00002219

 ALPHA AFTER:    1.4794235000597032E-005
  Cycle:    111 Energy:      -470.201206  Gnorm:      0.048544  CPU:    1.081
 Line minimisation2
 ALPHA BEFORE:    1.4797682459975377E-005
  ** Opt : line minimisation
left   ...       0.00000000    -470.20120639
centre ...       0.00000370    -470.19963142
right  ...      -0.00000370    -470.20120637

left   ...      -0.00000370    -470.20120637
centre ...       0.00000000    -470.20120639
right  ...       0.00000370    -470.19963142
new    ...      -0.00000185    -470.20120638

__s__    ...       0.00000185

 ALPHA AFTER:   -1.8496706731550721E-006
  Cycle:    112 Energy:      -470.201206  Gnorm:      0.048544  CPU:    1.090
  ** Hessian calculated **
 Line minimisation2
 ALPHA BEFORE:    1.0000000000000000     
  ** Opt : line minimisation
left   ...       0.00000000    -470.20120639
centre ...       0.25000000    -470.20059873
right  ...      -0.25000000    -470.19970881

left   ...      -0.25000000    -470.19970881
centre ...       0.00000000    -470.20120639
right  ...       0.25000000    -470.20059873
new    ...       0.05283982    -470.19988020

__s__    ...       0.30283982

left   ...      -0.25000000    -470.19970881
centre ...       0.00000000    -470.20120639
right  ...       0.05283982    -470.19988020
new    ...      -0.09582363    -470.20069542

__s__    ...      -0.14866346

left   ...      -0.09582363    -470.20069542
centre ...       0.00000000    -470.20120639
right  ...       0.05283982    -470.19988020
new    ...      -0.03488668    -470.20102942

__s__    ...       0.06093696

left   ...      -0.03488668    -470.20102942
centre ...       0.00000000    -470.20120639
right  ...       0.05283982    -470.19988020
new    ...      -0.01006874    -470.20115638

__s__    ...       0.02481794

left   ...      -0.01006874    -470.20115638
centre ...       0.00000000    -470.20120639
right  ...       0.05283982    -470.19988020
new    ...       0.00016188    -470.19963220

__s__    ...       0.01023062

left   ...      -0.01006874    -470.20115638
centre ...       0.00000000    -470.20120639
right  ...       0.00016188    -470.19963220
new    ...      -0.00503176    -470.20118150

__s__    ...      -0.00519364

 ALPHA AFTER:   -5.0317573363064362E-003
  Cycle:    113 Energy:      -470.201206  Gnorm:      0.048544  CPU:    1.114
  ** Hessian calculated **
 Line minimisation2
 ALPHA BEFORE:    1.0000000000000000     
  ** Opt : line minimisation
left   ...       0.00000000    -470.20120639
centre ...       0.25000000    -470.20059873
right  ...      -0.25000000    -470.19970881

left   ...      -0.25000000    -470.19970881
centre ...       0.00000000    -470.20120639
right  ...       0.25000000    -470.20059873
new    ...       0.05283982    -470.19988020

__s__    ...       0.30283982

left   ...      -0.25000000    -470.19970881
centre ...       0.00000000    -470.20120639
right  ...       0.05283982    -470.19988020
new    ...      -0.09582363    -470.20069542

__s__    ...      -0.14866346

left   ...      -0.09582363    -470.20069542
centre ...       0.00000000    -470.20120639
right  ...       0.05283982    -470.19988020
new    ...      -0.03488668    -470.20102942

__s__    ...       0.06093696

left   ...      -0.03488668    -470.20102942
centre ...       0.00000000    -470.20120639
right  ...       0.05283982    -470.19988020
new    ...      -0.01006874    -470.20115638

__s__    ...       0.02481794

left   ...      -0.01006874    -470.20115638
centre ...       0.00000000    -470.20120639
right  ...       0.05283982    -470.19988020
new    ...       0.00016188    -470.19963220

__s__    ...       0.01023062

left   ...      -0.01006874    -470.20115638
centre ...       0.00000000    -470.20120639
right  ...       0.00016188    -470.19963220
new    ...      -0.00503176    -470.20118150

__s__    ...      -0.00519364

 ALPHA AFTER:   -5.0317573363064362E-003


  **** Conditions for a minimum have not been satisfied. However ****
  **** no lower point can be found - treat results with caution  ****
  **** unless gradient norm is small (less than 0.1)             ****


  Final energy =    -470.20120639 eV
  Final Gnorm  =       0.04854441

  Components of energy : 

--------------------------------------------------------------------------------
  Interatomic potentials     =          71.26263828 eV    
  Monopole - monopole (real) =        -261.24666525 eV    
  Monopole - monopole (recip)=        -280.21717942 eV    
  Monopole - monopole (total)=        -541.46384467 eV    
--------------------------------------------------------------------------------
  Total lattice energy       =        -470.20120639 eV    
--------------------------------------------------------------------------------
  Total lattice energy       =          -45367.2287 kJ/(mole unit cells)
--------------------------------------------------------------------------------

  Final fractional coordinates of atoms :

--------------------------------------------------------------------------------
   No.  Atomic        x           y          z          Radius
        Label       (Frac)      (Frac)     (Frac)       (Angs) 
--------------------------------------------------------------------------------
     1  O     c     0.000000    0.500000    0.250000    0.000000
     2  O     c     0.463233    0.145931    0.317924    0.000000
     3  O     c     0.429150    0.659386    0.472812    0.000000
     4  O     c     0.703252    0.460095    0.875409    0.000000
     5  O     c     0.321917    0.068667    0.833383    0.000000
     6  O     c     0.786011    0.916222    0.507335    0.000000
     7  O     c     0.166391    0.254362    0.594350    0.000000
     8  O     c     0.387076    0.671848    0.254196    0.000000
     9  O     c     0.043616    0.690601    0.895811    0.000000
    10  Sr    c     0.566568    0.499718    0.652619    0.000000
    11  Sr    c     0.160509    0.959750    0.107144    0.000000
    12  Sr    c     0.580871    0.195038    0.964525    0.000000
    13  Ti    c     0.083036    0.345578    0.792539    0.000000
    14  Ti    c     0.540062    0.869034    0.389937    0.000000
    15  Ti    c     0.212647    0.566047    0.373447    0.000000
--------------------------------------------------------------------------------

  Final Cartesian lattice vectors (Angstroms) :

        5.298374    1.664905    0.734491
        1.664905    5.499241   -1.167807
        1.468983   -2.335613    9.928202


  Final cell parameters and derivatives :

--------------------------------------------------------------------------------
       a            5.602156 Angstrom     dE/de1(xx)    -0.105931 eV/strain
       b            5.863219 Angstrom     dE/de2(yy)    -0.856825 eV/strain
       c           10.304474 Angstrom     dE/de3(zz)    -0.143800 eV/strain
       alpha      111.346741 Degrees      dE/de4(yz)     0.343278 eV/strain
       beta        78.826099 Degrees      dE/de5(xz)     0.360256 eV/strain
       gamma       58.588093 Degrees      dE/de6(xy)    -0.430819 eV/strain
--------------------------------------------------------------------------------

  Primitive cell volume =           235.661110 Angs**3

  Density of cell =      3.879050 g/cm**3

  Non-primitive cell volume =           235.661110 Angs**3


  Final internal derivatives :

--------------------------------------------------------------------------------
   No.  Atomic          a             b             c           Radius
        Label          (eV)          (eV)          (eV)        (eV/Angs)
--------------------------------------------------------------------------------
      1 O     c       0.000000      0.000000      0.000000      0.000000
      2 O     c      -0.179577     -0.459085      0.501625      0.000000
      3 O     c       0.381421      0.277361      0.335942      0.000000
      4 O     c       0.028699      0.001953     -0.297855      0.000000
      5 O     c      -0.028779      0.225080     -0.614106      0.000000
      6 O     c      -0.004557      0.038179      0.346559      0.000000
      7 O     c      -0.256855     -0.434102      0.581950      0.000000
      8 O     c      -0.249514     -0.268100      0.250586      0.000000
      9 O     c      -0.053837     -0.239503      0.272489      0.000000
     10 Sr    c      -0.235727     -0.064660     -0.063023      0.000000
     11 Sr    c       0.135710      0.031438      0.192432      0.000000
     12 Sr    c       0.182165      0.323630     -0.161676      0.000000
     13 Ti    c       0.003594      0.059394     -0.016731      0.000000
     14 Ti    c      -0.320730      0.197643     -0.841205      0.000000
     15 Ti    c       0.534924      0.407921     -0.495916      0.000000
--------------------------------------------------------------------------------
  Maximum abs         0.534924      0.459085      0.841205      0.000000
--------------------------------------------------------------------------------


  Time to end of optimisation =       1.1375 seconds

 Exiting ------OPTIONS------

  Peak dynamic memory used =       0.60 MB 


  Timing analysis for GULP :

--------------------------------------------------------------------------------
  Task / Subroutine                                          Time (Seconds)
--------------------------------------------------------------------------------
  Calculation of reciprocal space energy and derivatives          0.0772
  Calculation of real space energy and derivatives                1.0449
  Calculation and manipulation of Hessian matrix                  0.0002
  Calculation of matrix inversion                                 0.0010
  Global summation overhead                                       0.0004
--------------------------------------------------------------------------------
  Total CPU time                                                  1.1376
--------------------------------------------------------------------------------


  Job Finished at 11:50.22  4th February   2020                               

