********************************************************************************
*                       GENERAL UTILITY LATTICE PROGRAM                        *
*                                 Julian Gale                                  *
*                       Curtin Institute for Computation                       *
*                           Department of Chemistry                            *
*                    Curtin University, Western Australia                      *
********************************************************************************
* Version = 5.1.1 * Last modified =  25th August 2019                          *
********************************************************************************
*  optimise     - perform optimisation run                                     *
*  conp         - constant pressure calculation                                *
*  nosymmetry   - turn off symmetry after initial structure generation         *
*  full         - generate full unit cell when symmetry is removed             *
********************************************************************************
* ASE calculation                                                              *
********************************************************************************


  Job Started  at 13:26.16 21st February   2020                               

  Number of CPUs =     1


  Total number of configurations input =      1

********************************************************************************
*  Input for Configuration =   1                                               *
********************************************************************************

  Formula = O9Sr3Ti3                                                    

  Number of irreducible atoms/shells =      15


  Total number atoms/shells =      15

  Dimensionality = 3               :  Bulk   



  Cartesian lattice vectors (Angstroms) :

        4.000000    0.000000    0.000000
        0.000000    4.000000    0.000000
        0.000000    0.000000    8.000000

  Cell parameters (Angstroms/Degrees):

  a =       4.0000    alpha =  90.0000
  b =       4.0000    beta  =  90.0000
  c =       8.0000    gamma =  90.0000

  Initial cell volume =         128.000000 Angs**3

  Temperature of configuration =  0.000     K 

  Pressure of configuration =         0.000 GPa 

  Fractional coordinates of asymmetric unit :

--------------------------------------------------------------------------------
   No.  Atomic       x           y          z         Charge      Occupancy
        Label      (Frac)      (Frac)     (Frac)        (e)         (Frac)  
--------------------------------------------------------------------------------
      1 O     c    0.500000    0.500000    0.750000    -2.00000    1.000000    
      2 O     c    0.500000 *  0.000000 *  0.750000 *  -2.00000    1.000000    
      3 O     c    0.000000 *  0.500000 *  0.750000 *  -2.00000    1.000000    
      4 O     c    0.000000 *  0.500000 *  0.000000 *  -2.00000    1.000000    
      5 O     c    0.000000 *  0.000000 *  0.250000 *  -2.00000    1.000000    
      6 O     c    0.500000 *  0.000000 *  0.250000 *  -2.00000    1.000000    
      7 O     c    0.500000 *  0.500000 *  0.250000 *  -2.00000    1.000000    
      8 O     c    0.500000 *  0.500000 *  0.500000 *  -2.00000    1.000000    
      9 O     c    0.500000 *  0.000000 *  0.500000 *  -2.00000    1.000000    
     10 Sr    c    0.250000 *  0.750000 *  0.375000 *   2.00000    1.000000    
     11 Sr    c    0.250000 *  0.750000 *  0.875000 *   2.00000    1.000000    
     12 Sr    c    0.250000 *  0.250000 *  0.625000 *   2.00000    1.000000    
     13 Ti    c    0.250000 *  0.750000 *  0.625000 *   4.00000    1.000000    
     14 Ti    c    0.750000 *  0.250000 *  0.875000 *   4.00000    1.000000    
     15 Ti    c    0.750000 *  0.750000 *  0.375000 *   4.00000    1.000000    
--------------------------------------------------------------------------------



********************************************************************************
*  General input information                                                   *
********************************************************************************

  Species output for all configurations : 

--------------------------------------------------------------------------------
  Species    Type    Atomic    Atomic    Charge       Radii (Angs)     Library
                     Number     Mass       (e)     Cova   Ionic  VDW   Symbol
--------------------------------------------------------------------------------
    O        Core        8      16.00  -2.000000   0.730  0.000  1.360          
    Sr       Core       38      87.62   2.000000   1.120  0.000  1.670          
    Ti       Core       22      47.88   4.000000   1.470  0.000  2.190          
--------------------------------------------------------------------------------


  Lattice summation method               =    Ewald          (3-D)
                                         =    Parry          (2-D)
                                         =    Saunders et al (1-D)
  Accuracy factor for lattice sums       =   12.000


  Time limit =      15.00 seconds

  Maximum range for interatomic potentials =    100000.000000 Angstroms

  General interatomic potentials :

--------------------------------------------------------------------------------
Atom  Types   Potential      Parameter       Value         Units   Cutoffs(Ang)
  1     2                                                            Min /  Max 
--------------------------------------------------------------------------------
O    c Sr   c Buckingham    Buckingham A     1952.3900    eV        0.000 10.000
                            Buckingham rho  0.33685000    Ang       
                            Buckingham C     19.220000    eV*Ang^6  
--------------------------------------------------------------------------------
O    c Ti   c Buckingham    Buckingham A     4590.7279    eV        0.000 10.000
                            Buckingham rho  0.26100000    Ang       
                            Buckingham C     0.0000000    eV*Ang^6  
--------------------------------------------------------------------------------
O    c O    c Buckingham    Buckingham A     1388.7700    eV        0.000 10.000
                            Buckingham rho  0.36262000    Ang       
                            Buckingham C     175.00000    eV*Ang^6  
--------------------------------------------------------------------------------
 Calling ------OPTIONS------

********************************************************************************
*  Output for configuration   1                                                *
********************************************************************************


  Components of energy : 

--------------------------------------------------------------------------------
  Interatomic potentials     =         283.74069147 eV    
  Monopole - monopole (real) =        -200.67401279 eV    
  Monopole - monopole (recip)=        -313.23454466 eV    
  Monopole - monopole (total)=        -513.90855745 eV    
--------------------------------------------------------------------------------
  Total lattice energy       =        -230.16786598 eV    
--------------------------------------------------------------------------------
  Total lattice energy       =          -22207.6806 kJ/(mole unit cells)
--------------------------------------------------------------------------------


  Number of variables =       48

  Maximum number of calculations  =          1000
  Maximum Hessian update interval =            10
  Maximum step size               =   1.000000000
  Maximum parameter tolerance     =   0.000010000
  Maximum function  tolerance     =   0.000010000
  Maximum gradient  tolerance     =   0.001000000
  Maximum gradient  component     =   0.010000000

  Cell parameters to be optimised using strains

  Newton-Raphson optimiser to be used

  BFGS hessian update to be used

  Lower half triangular hessian to be used

  Start of bulk optimisation :

  Cycle:      0 Energy:      -230.167866  Gnorm:     22.287918  CPU:    0.015
  ** Hessian calculated **
 ALPHA BEFORE:    1.0000000000000000     
 XC BEFORE:   0.50000000000000000     
  ** Opt : line minimisation
left   ...       0.00000000    -230.16786598
centre ...       0.25000000    -282.18847906
right  ...       0.50000000    -319.03327522

left   ...       0.00000000    -230.16786598
centre ...       0.25000000    -282.18847906
right  ...       0.50000000    -319.03327522
new    ...       0.98196561    -358.58070466

__s__    ...       0.48196561

left   ...       0.25000000    -282.18847906
centre ...       0.50000000    -319.03327522
right  ...       0.98196561    -358.58070466
new    ...       1.20069425    -366.82632422

__s__    ...       0.21872864

left   ...       0.50000000    -319.03327522
centre ...       0.98196561    -358.58070466
right  ...       1.20069425    -366.82632422
new    ...       1.38908470    -370.51648489

__s__    ...       0.18839045

left   ...       0.98196561    -358.58070466
centre ...       1.20069425    -366.82632422
right  ...       1.38908470    -370.51648489
new    ...       1.51505881    -371.56079456

__s__    ...       0.12597410

left   ...       1.20069425    -366.82632422
centre ...       1.38908470    -370.51648489
right  ...       1.51505881    -371.56079456
new    ...       1.56740424    -371.70634515

__s__    ...       0.05234544

 ALPHA AFTER:    1.5674042425750139     
 XC AFTER:   0.57468393615130253     
 SANITY CHECK:    1.5674042425750161     
 DIRECTION dim            1  value    4.7648165114449186E-002
 DIRECTION dim            2  value   -9.3251085157628139E-004
 DIRECTION dim            3  value    5.3421742021250379E-003
 DIRECTION dim            4  value   -1.6051867568047072E-002
 DIRECTION dim            5  value    2.7219088003335545E-003
 DIRECTION dim            6  value   -1.0801075634254947E-002
 DIRECTION dim            7  value   -3.5087635228518911E-002
 DIRECTION dim            8  value   -4.4041054571478770E-002
 DIRECTION dim            9  value    9.8856433057360857E-004
 DIRECTION dim           10  value   -1.1596079791437107E-002
 DIRECTION dim           11  value    2.3990736643674810E-002
 DIRECTION dim           12  value    1.0088862853564506E-002
 DIRECTION dim           13  value    1.9974848817985322E-002
 DIRECTION dim           14  value    1.0137002791965619E-002
 DIRECTION dim           15  value   -3.6691177806636249E-002
 DIRECTION dim           16  value    6.6699582149053124E-002
 DIRECTION dim           17  value   -7.6097191229861612E-003
 DIRECTION dim           18  value   -1.7193383239578121E-002
 DIRECTION dim           19  value    7.7343567360754858E-002
 DIRECTION dim           20  value    4.7779319911255514E-003
 DIRECTION dim           21  value    5.1250171491233516E-003
 DIRECTION dim           22  value    7.7523827430867734E-002
 DIRECTION dim           23  value   -4.7572430195321411E-003
 DIRECTION dim           24  value    7.3005611971818539E-003
 DIRECTION dim           25  value   -2.3876797423325262E-002
 DIRECTION dim           26  value   -2.1029481536266496E-002
 DIRECTION dim           27  value   -1.4322925561069457E-002
 DIRECTION dim           28  value    1.6232033502375945E-003
 DIRECTION dim           29  value    2.9538040731117970E-002
 DIRECTION dim           30  value    3.2365588590468973E-002
 DIRECTION dim           31  value   -4.6804513828837192E-002
 DIRECTION dim           32  value   -6.9069551466513137E-003
 DIRECTION dim           33  value   -1.3742779228629062E-002
 DIRECTION dim           34  value    1.6993276016881560E-002
 DIRECTION dim           35  value   -2.6651472730916418E-003
 DIRECTION dim           36  value    5.3696937577210424E-005
 DIRECTION dim           37  value   -3.0308837394779401E-003
 DIRECTION dim           38  value    6.6942616168063178E-003
 DIRECTION dim           39  value    2.5466195768767130E-002
 DIRECTION dim           40  value   -5.8706245754162204E-003
 DIRECTION dim           41  value    2.7368510367459017E-003
 DIRECTION dim           42  value   -2.5847387255422134E-002
 DIRECTION dim           43  value   0.14608136281169917     
 DIRECTION dim           44  value   0.14257000711626600     
 DIRECTION dim           45  value   0.11719745165577677     
 DIRECTION dim           46  value    1.5395977048941424E-002
 DIRECTION dim           47  value   -1.5547306254936652E-002
 DIRECTION dim           48  value    1.5157571022650284E-004
  Cycle:      1 Energy:      -371.706345  Gnorm:      9.126529  CPU:    0.029
  ** Hessian calculated **
 ALPHA BEFORE:    1.0000000000000000     
 XC BEFORE:   0.57468393615130253     
  ** Opt : line minimisation
left   ...       0.00000000    -371.70634515
centre ...       0.25000000    -369.80206967
right  ...      -0.25000000    -373.59110449

left   ...      -0.25000000    -373.59110449
centre ...       0.00000000    -371.70634515
right  ...       0.25000000    -369.80206967
new    ...      -1.14858648    -377.67424125

__s__    ...      -0.89858648

left   ...      -1.14858648    -377.67424125
centre ...      -0.25000000    -373.59110449
right  ...       0.00000000    -371.70634515
new    ...      -1.57057581    -373.29407070

__s__    ...      -0.42198933

left   ...      -1.57057581    -373.29407070
centre ...      -1.14858648    -377.67424125
right  ...      -0.25000000    -373.59110449
new    ...      -0.90033620    -377.57522385

__s__    ...       0.67023960

left   ...      -1.57057581    -373.29407070
centre ...      -1.14858648    -377.67424125
right  ...      -0.90033620    -377.57522385
new    ...      -1.03686233    -377.80256583

__s__    ...      -0.13652613

 ALPHA AFTER:    1.0368623329766347     
 XC AFTER:   0.57038592075979710     
 SANITY CHECK:    1.0368623329766480     
 DIRECTION dim            1  value   -4.1452131636092781E-003
 DIRECTION dim            2  value   -8.3207775146242174E-005
 DIRECTION dim            3  value   -1.0076708988168504E-003
 DIRECTION dim            4  value   -1.3111522632860168E-003
 DIRECTION dim            5  value   -5.0592554551468971E-003
 DIRECTION dim            6  value    1.5862678590798754E-004
 DIRECTION dim            7  value   -7.5748765911232108E-004
 DIRECTION dim            8  value   -7.4741704342660173E-004
 DIRECTION dim            9  value   -5.2012247160051698E-005
 DIRECTION dim           10  value   -2.8627044265851090E-004
 DIRECTION dim           11  value    2.0584616689795802E-003
 DIRECTION dim           12  value   -3.7381526630188271E-003
 DIRECTION dim           13  value    6.6793794941079224E-004
 DIRECTION dim           14  value    2.0011385750148577E-003
 DIRECTION dim           15  value   -5.6387088553300593E-004
 DIRECTION dim           16  value   -2.3996024953332491E-004
 DIRECTION dim           17  value   -1.1227463995321146E-003
 DIRECTION dim           18  value   -7.5084100940016839E-004
 DIRECTION dim           19  value   -1.1948640886287854E-003
 DIRECTION dim           20  value   -1.3833590574099802E-003
 DIRECTION dim           21  value    5.2588862499932569E-004
 DIRECTION dim           22  value   -1.1015515299514472E-003
 DIRECTION dim           23  value    1.3156979828744502E-003
 DIRECTION dim           24  value    4.2446437052335797E-004
 DIRECTION dim           25  value   -1.0473638699201246E-003
 DIRECTION dim           26  value   -1.4015011094737436E-002
 DIRECTION dim           27  value    2.1687474847093273E-003
 DIRECTION dim           28  value   -2.1019385420106441E-004
 DIRECTION dim           29  value    1.2722858308176186E-003
 DIRECTION dim           30  value   -1.4268969448833825E-003
 DIRECTION dim           31  value   -8.3272374848002341E-005
 DIRECTION dim           32  value    6.4810523618175414E-005
 DIRECTION dim           33  value    7.7123287975915025E-004
 DIRECTION dim           34  value    4.1807379351369908E-003
 DIRECTION dim           35  value    1.2324684792854664E-003
 DIRECTION dim           36  value   -7.7648891985304409E-004
 DIRECTION dim           37  value    7.2301531113071725E-004
 DIRECTION dim           38  value   -1.0207931934814316E-005
 DIRECTION dim           39  value    6.6676724617085906E-004
 DIRECTION dim           40  value    7.9432263848008757E-004
 DIRECTION dim           41  value   -3.3682754321408301E-003
 DIRECTION dim           42  value    9.8982628252757303E-004
 DIRECTION dim           43  value    4.7504002075981291E-005
 DIRECTION dim           44  value   -9.0554980737005976E-004
 DIRECTION dim           45  value    4.6976624588035285E-004
 DIRECTION dim           46  value   0.44514357942979516     
 DIRECTION dim           47  value   -1.9829940266849243E-003
 DIRECTION dim           48  value    2.9107548019841605E-002
  Cycle:      2 Energy:      -377.802566  Gnorm:      7.543973  CPU:    0.041
  ** Hessian calculated **
 ALPHA BEFORE:    1.0000000000000000     
 XC BEFORE:   0.57038592075979710     
  ** Opt : line minimisation
left   ...       0.00000000    -377.80256583
centre ...       0.25000000    -392.49481569
right  ...       0.50000000    -397.08191951

left   ...       0.00000000    -377.80256583
centre ...       0.25000000    -392.49481569
right  ...       0.50000000    -397.08191951
new    ...       0.48848435    -397.12095831

__s__    ...      -0.01151565

 ALPHA AFTER:   0.48848435260768264     
 XC AFTER:   0.80193511775447757     
 SANITY CHECK:   0.48848435260768264     
 DIRECTION dim            1  value   0.47401558669914040     
 DIRECTION dim            2  value    3.0958549652210328E-003
 DIRECTION dim            3  value    1.0342893515967217E-002
 DIRECTION dim            4  value    1.5683178409775924E-002
 DIRECTION dim            5  value   -9.4741125686028039E-005
 DIRECTION dim            6  value   -2.9449242367908779E-003
 DIRECTION dim            7  value    2.9817567919225630E-003
 DIRECTION dim            8  value    3.1325248562359605E-004
 DIRECTION dim            9  value   -3.6125308903817168E-003
 DIRECTION dim           10  value    1.2341045799275664E-003
 DIRECTION dim           11  value   -9.0585303293229530E-003
 DIRECTION dim           12  value   0.20379953108465454     
 DIRECTION dim           13  value   -4.2143109477831651E-003
 DIRECTION dim           14  value   -1.3504766404831697E-002
 DIRECTION dim           15  value   -2.0437521065443456E-002
 DIRECTION dim           16  value    2.0702498507861287E-003
 DIRECTION dim           17  value    2.6834302634953702E-002
 DIRECTION dim           18  value    2.4593404746622159E-002
 DIRECTION dim           19  value    2.2844749666194413E-002
 DIRECTION dim           20  value    4.7895279973939262E-003
 DIRECTION dim           21  value   -2.6315510063927776E-003
 DIRECTION dim           22  value    1.8588050495369983E-002
 DIRECTION dim           23  value   -1.3296869976174646E-002
 DIRECTION dim           24  value   -3.3607826883297275E-003
 DIRECTION dim           25  value    1.2915768291442691E-002
 DIRECTION dim           26  value   -4.4107518097418252E-002
 DIRECTION dim           27  value   -6.6203494557189602E-002
 DIRECTION dim           28  value    2.2176848365293299E-003
 DIRECTION dim           29  value   -1.5398388798970373E-002
 DIRECTION dim           30  value    1.4038609231258683E-002
 DIRECTION dim           31  value    1.0963302994992935E-002
 DIRECTION dim           32  value   -3.1361743214718883E-004
 DIRECTION dim           33  value    1.3620079486030207E-003
 DIRECTION dim           34  value   0.39774636031092470     
 DIRECTION dim           35  value   -4.5844117396354601E-004
 DIRECTION dim           36  value    3.3568457590008724E-003
 DIRECTION dim           37  value   -2.5406535141813008E-003
 DIRECTION dim           38  value    9.5176165972323413E-003
 DIRECTION dim           39  value    7.8112733584809039E-004
 DIRECTION dim           40  value   -7.4793175841316563E-003
 DIRECTION dim           41  value    3.8498928365790976E-002
 DIRECTION dim           42  value   -6.8015230589851677E-003
 DIRECTION dim           43  value   -4.8289660944727191E-004
 DIRECTION dim           44  value    1.6277108307604406E-002
 DIRECTION dim           45  value    4.0436413593178686E-003
 DIRECTION dim           46  value    2.5084248042007890E-002
 DIRECTION dim           47  value    1.3605731594204669E-002
 DIRECTION dim           48  value  -0.10341920408510279     
  Cycle:      3 Energy:      -397.120958  Gnorm:      7.341801  CPU:    0.047
  ** Hessian calculated **
 ALPHA BEFORE:    1.0000000000000000     
 XC BEFORE:   0.80193511775447757     
  ** Opt : line minimisation
left   ...       0.00000000    -397.12095831
centre ...       0.25000000    -401.50142091
right  ...       0.50000000    -387.11771344

left   ...       0.00000000    -397.12095831
centre ...       0.25000000    -401.50142091
right  ...       0.50000000    -387.11771344
new    ...       0.18336206    -400.96966951

__s__    ...      -0.31663794

left   ...       0.18336206    -400.96966951
centre ...       0.25000000    -401.50142091
right  ...       0.50000000    -387.11771344
new    ...       0.23596438    -401.46151297

__s__    ...       0.05260231

 ALPHA AFTER:   0.25000000000000000     
 XC AFTER:   0.81649244726410686     
 SANITY CHECK:   0.24999999999999978     
 DIRECTION dim            1  value    5.8229318038517212E-002
 DIRECTION dim            2  value    9.1661150715270936E-002
 DIRECTION dim            3  value    1.3216761842959120E-002
 DIRECTION dim            4  value    1.5556691201336261E-002
 DIRECTION dim            5  value    9.9142120831035060E-002
 DIRECTION dim            6  value   -1.0776586458737166E-002
 DIRECTION dim            7  value    9.5045295755394235E-002
 DIRECTION dim            8  value   0.22641804847825428     
 DIRECTION dim            9  value   -5.8711519985151076E-002
 DIRECTION dim           10  value    9.1614306593490943E-002
 DIRECTION dim           11  value   0.15091684590642879     
 DIRECTION dim           12  value  -0.10146383479964351     
 DIRECTION dim           13  value   0.14771786702453951     
 DIRECTION dim           14  value   0.32038439195586216     
 DIRECTION dim           15  value  -0.10388641236452109     
 DIRECTION dim           16  value   0.34559352709758889     
 DIRECTION dim           17  value   0.33957636607007480     
 DIRECTION dim           18  value    4.8429753424473990E-002
 DIRECTION dim           19  value   0.25618761870794077     
 DIRECTION dim           20  value    8.7604647185527046E-002
 DIRECTION dim           21  value   -4.5363051437268868E-002
 DIRECTION dim           22  value   0.15212498786246861     
 DIRECTION dim           23  value   -6.7769730968196731E-002
 DIRECTION dim           24  value    1.3289745534509737E-002
 DIRECTION dim           25  value   0.20068099841737161     
 DIRECTION dim           26  value   0.31094848880477227     
 DIRECTION dim           27  value   -1.0915272692262495E-004
 DIRECTION dim           28  value   0.28661346147802502     
 DIRECTION dim           29  value    8.5400020824298137E-002
 DIRECTION dim           30  value    1.1101521950589693E-002
 DIRECTION dim           31  value  -0.13210347661324542     
 DIRECTION dim           32  value    6.4838335649506917E-002
 DIRECTION dim           33  value   -5.6852256902197126E-002
 DIRECTION dim           34  value    2.5601755019877149E-002
 DIRECTION dim           35  value    2.6600906151540179E-003
 DIRECTION dim           36  value   -1.6153895768174960E-003
 DIRECTION dim           37  value   0.11900180265366980     
 DIRECTION dim           38  value   0.16589249101749584     
 DIRECTION dim           39  value   -2.3347326805059673E-002
 DIRECTION dim           40  value   0.13463333293860061     
 DIRECTION dim           41  value   0.18932915416575519     
 DIRECTION dim           42  value   -7.1064744727528328E-002
 DIRECTION dim           43  value  -0.11270286654464529     
 DIRECTION dim           44  value    8.2914264707512481E-002
 DIRECTION dim           45  value    7.7350835878479254E-002
 DIRECTION dim           46  value    7.6016408494785026E-002
 DIRECTION dim           47  value   0.10778586904337352     
 DIRECTION dim           48  value    9.8996728126114653E-002
  Cycle:      4 Energy:      -401.501421  Gnorm:      7.002216  CPU:    0.055
  ** Hessian calculated **
 ALPHA BEFORE:    1.0000000000000000     
 XC BEFORE:   0.81649244726410686     
  ** Opt : line minimisation
left   ...       0.00000000    -401.50142091
centre ...       0.25000000    -408.72981797
right  ...       0.50000000    -365.18669215

left   ...       0.00000000    -401.50142091
centre ...       0.25000000    -408.72981797
right  ...       0.50000000    -365.18669215
new    ...       0.16059277    -411.63425623

__s__    ...      -0.33940723

left   ...       0.00000000    -401.50142091
centre ...       0.16059277    -411.63425623
right  ...       0.25000000    -408.72981797
new    ...       0.16281256    -411.66406729

__s__    ...       0.00221979

 ALPHA AFTER:   0.16281256054008753     
 XC AFTER:   0.65750612269606024     
 SANITY CHECK:   0.16281256054008764     
 DIRECTION dim            1  value  -0.97649913520585585     
 DIRECTION dim            2  value    1.9565684097944541E-002
 DIRECTION dim            3  value   0.11153661208867871     
 DIRECTION dim            4  value    5.7366073793305883E-002
 DIRECTION dim            5  value    2.5833543345239714E-003
 DIRECTION dim            6  value    6.5301223010395771E-003
 DIRECTION dim            7  value    1.2308227191549745E-002
 DIRECTION dim            8  value   -5.6726630700083495E-003
 DIRECTION dim            9  value    2.5147368071570795E-003
 DIRECTION dim           10  value    4.0166585949801367E-002
 DIRECTION dim           11  value   -4.3609818781522258E-002
 DIRECTION dim           12  value   -1.6910103859232323E-002
 DIRECTION dim           13  value    1.0128751048158170E-002
 DIRECTION dim           14  value   -3.8836663830645352E-002
 DIRECTION dim           15  value   -7.4309661072245403E-002
 DIRECTION dim           16  value  -0.37837912213905223     
 DIRECTION dim           17  value    1.6801701334143505E-003
 DIRECTION dim           18  value   -9.4234083789166943E-003
 DIRECTION dim           19  value   0.79741648421420441     
 DIRECTION dim           20  value    2.5207105900722948E-002
 DIRECTION dim           21  value   -2.9114597172590203E-003
 DIRECTION dim           22  value   -1.0935763175798436E-002
 DIRECTION dim           23  value    2.5605835507465726E-002
 DIRECTION dim           24  value   -2.1289614216713746E-002
 DIRECTION dim           25  value    1.0570020421336482E-002
 DIRECTION dim           26  value  -0.23936094929018431     
 DIRECTION dim           27  value   -9.1352508463713483E-002
 DIRECTION dim           28  value   -2.0499796063124135E-002
 DIRECTION dim           29  value   -4.1595087104312346E-002
 DIRECTION dim           30  value    1.9935806345773265E-002
 DIRECTION dim           31  value  -0.18797710732469208     
 DIRECTION dim           32  value   -2.4188177472909529E-002
 DIRECTION dim           33  value   -1.3403617839122877E-002
 DIRECTION dim           34  value   0.59724064917874176     
 DIRECTION dim           35  value    2.7715900708873427E-002
 DIRECTION dim           36  value   -1.6397479509181943E-002
 DIRECTION dim           37  value    1.4398974698783153E-002
 DIRECTION dim           38  value    1.4001010089987111E-002
 DIRECTION dim           39  value   -1.7367050460227997E-002
 DIRECTION dim           40  value   -6.7555168760196471E-003
 DIRECTION dim           41  value    3.7815711841011394E-002
 DIRECTION dim           42  value    1.1762967226669556E-002
 DIRECTION dim           43  value    6.0408497616482947E-002
 DIRECTION dim           44  value    8.4612647426637794E-002
 DIRECTION dim           45  value    8.6637624810780092E-002
 DIRECTION dim           46  value  -0.13714151738329602     
 DIRECTION dim           47  value   -1.2539351422780403E-002
 DIRECTION dim           48  value   -8.2718073596999384E-002
  Cycle:      5 Energy:      -411.664067  Gnorm:      9.447515  CPU:    0.062
  ** Hessian calculated **
 ALPHA BEFORE:    1.0000000000000000     
 XC BEFORE:   0.65750612269606024     
  ** Opt : line minimisation
left   ...       0.00000000    -411.66406729
centre ...       0.25000000    -412.51851079
right  ...       0.50000000    -414.84644990

left   ...       0.00000000    -411.66406729
centre ...       0.25000000    -412.51851079
right  ...       0.50000000    -414.84644990
new    ...       0.90969269    -437.01777372

__s__    ...       0.40969269

left   ...       0.25000000    -412.51851079
centre ...       0.50000000    -414.84644990
right  ...       0.90969269    -437.01777372
new    ...       1.31938538    -414.16004346

__s__    ...       0.40969269

left   ...       0.50000000    -414.84644990
centre ...       0.90969269    -437.01777372
right  ...       1.31938538    -414.16004346
new    ...       0.90969269    -437.01777372

__s__    ...      -0.40969269

 ALPHA AFTER:   0.90969268917806956     
 XC AFTER:   0.67737258660274735     
 SANITY CHECK:   0.90969268917806467     
 DIRECTION dim            1  value    2.1838654023522027E-002
 DIRECTION dim            2  value   -1.8087859768504168E-002
 DIRECTION dim            3  value    6.2690685728148371E-002
 DIRECTION dim            4  value   -1.8889851219631278E-002
 DIRECTION dim            5  value    3.0940920226690753E-002
 DIRECTION dim            6  value    1.1662958792152010E-002
 DIRECTION dim            7  value    2.3258285158841395E-003
 DIRECTION dim            8  value   -3.4799145845612727E-006
 DIRECTION dim            9  value    1.4903044300441004E-003
 DIRECTION dim           10  value    3.8940711519125919E-002
 DIRECTION dim           11  value   -4.2378430666726037E-002
 DIRECTION dim           12  value   -1.8325191565263101E-002
 DIRECTION dim           13  value    4.7175575085009427E-002
 DIRECTION dim           14  value   -3.1350867077283205E-002
 DIRECTION dim           15  value   -7.9494262348920264E-002
 DIRECTION dim           16  value    2.6895518595095015E-002
 DIRECTION dim           17  value    1.4996926527345203E-002
 DIRECTION dim           18  value    5.4742078761299403E-003
 DIRECTION dim           19  value   -9.7143459262035617E-002
 DIRECTION dim           20  value    3.7128863488318953E-002
 DIRECTION dim           21  value   -1.7139847593094251E-002
 DIRECTION dim           22  value   0.97634156177520492     
 DIRECTION dim           23  value    6.8032638803904824E-002
 DIRECTION dim           24  value   -4.4836867610164331E-002
 DIRECTION dim           25  value   -1.5818497838796266E-002
 DIRECTION dim           26  value  -0.30656397000055791     
 DIRECTION dim           27  value   -6.0325698295602428E-002
 DIRECTION dim           28  value   -1.2405102200993100E-002
 DIRECTION dim           29  value   -5.8589433614765728E-002
 DIRECTION dim           30  value    2.4346027137718128E-002
 DIRECTION dim           31  value    1.4695285040400815E-002
 DIRECTION dim           32  value   -6.3130215252017341E-002
 DIRECTION dim           33  value    1.7605814404918381E-002
 DIRECTION dim           34  value   -4.8185067036217609E-003
 DIRECTION dim           35  value   -3.2463610017260718E-002
 DIRECTION dim           36  value    1.8117304161496955E-002
 DIRECTION dim           37  value   -7.8281701219595837E-003
 DIRECTION dim           38  value    6.2106213426758230E-003
 DIRECTION dim           39  value   -1.2902800851748565E-002
 DIRECTION dim           40  value   -6.6950323137868178E-003
 DIRECTION dim           41  value    4.3036574223340431E-002
 DIRECTION dim           42  value    1.3963569074712618E-003
 DIRECTION dim           43  value   0.13594428847176412     
 DIRECTION dim           44  value    8.1353625656534090E-002
 DIRECTION dim           45  value    7.7872652098265951E-002
 DIRECTION dim           46  value  -0.23258648421051278     
 DIRECTION dim           47  value  -0.33644131699056606     
 DIRECTION dim           48  value    2.4089586247374862E-003
  Cycle:      6 Energy:      -437.017774  Gnorm:      5.376614  CPU:    0.072
  ** Hessian calculated **
 ALPHA BEFORE:    1.0000000000000000     
 XC BEFORE:   0.67737258660274735     
  ** Opt : line minimisation
left   ...       0.00000000    -437.01777372
centre ...       0.25000000    -441.80154549
right  ...       0.50000000    -361.89180871

left   ...       0.00000000    -437.01777372
centre ...       0.25000000    -441.80154549
right  ...       0.50000000    -361.89180871
new    ...       0.13912083    -443.09302331

__s__    ...      -0.36087917

left   ...       0.00000000    -437.01777372
centre ...       0.13912083    -443.09302331
right  ...       0.25000000    -441.80154549
new    ...       0.16824002    -443.61862044

__s__    ...       0.02911919

left   ...       0.13912083    -443.09302331
centre ...       0.16824002    -443.61862044
right  ...       0.25000000    -441.80154549
new    ...       0.17852692    -443.68926912

__s__    ...       0.01028690

 ALPHA AFTER:   0.17852691775219651     
 XC AFTER:   0.70343818504602107     
 SANITY CHECK:   0.17852691775219581     
 DIRECTION dim            1  value   0.14600374426143434     
 DIRECTION dim            2  value   -5.9993852810543681E-002
 DIRECTION dim            3  value   -4.6504728896585003E-002
 DIRECTION dim            4  value    7.2153638711598661E-002
 DIRECTION dim            5  value  -0.31945027813405547     
 DIRECTION dim            6  value    3.1529483720646297E-002
 DIRECTION dim            7  value    2.6021970071807995E-002
 DIRECTION dim            8  value  -0.22296399163564076     
 DIRECTION dim            9  value    9.1414641021929810E-002
 DIRECTION dim           10  value   0.28998928935325990     
 DIRECTION dim           11  value  -0.48739739022857276     
 DIRECTION dim           12  value   -8.1963801971469005E-002
 DIRECTION dim           13  value  -0.12084752961629032     
 DIRECTION dim           14  value   -9.6046408564651672E-003
 DIRECTION dim           15  value   -2.1009477200115007E-002
 DIRECTION dim           16  value   0.26368950562170018     
 DIRECTION dim           17  value  -0.20260079896594765     
 DIRECTION dim           18  value   -5.9019581088679884E-002
 DIRECTION dim           19  value    8.0164882963424527E-004
 DIRECTION dim           20  value  -0.35631648468540916     
 DIRECTION dim           21  value    9.2891691150472043E-003
 DIRECTION dim           22  value   0.31490447513630665     
 DIRECTION dim           23  value  -0.48627915571742103     
 DIRECTION dim           24  value   0.14700877262387244     
 DIRECTION dim           25  value    6.8607650635839623E-002
 DIRECTION dim           26  value  -0.29882317726625746     
 DIRECTION dim           27  value  -0.11558410231654451     
 DIRECTION dim           28  value  -0.39339646818064100     
 DIRECTION dim           29  value   0.21079110435810347     
 DIRECTION dim           30  value  -0.10113756167708768     
 DIRECTION dim           31  value   -7.6962113587352582E-002
 DIRECTION dim           32  value   0.37256800265120815     
 DIRECTION dim           33  value    4.3740356383040642E-002
 DIRECTION dim           34  value    5.9879627725882519E-002
 DIRECTION dim           35  value   -2.6358951317102128E-002
 DIRECTION dim           36  value   -3.2842916879798123E-002
 DIRECTION dim           37  value   -7.3250481909767462E-002
 DIRECTION dim           38  value  -0.10660739594680159     
 DIRECTION dim           39  value    3.1916732978541897E-002
 DIRECTION dim           40  value    7.6177792928352875E-002
 DIRECTION dim           41  value  -0.20400929648216018     
 DIRECTION dim           42  value   -2.7622031550016576E-002
 DIRECTION dim           43  value  -0.37117526781915289     
 DIRECTION dim           44  value    9.3822552581403124E-002
 DIRECTION dim           45  value  -0.27372042954754555     
 DIRECTION dim           46  value  -0.15155452119901389     
 DIRECTION dim           47  value   0.18940767722128718     
 DIRECTION dim           48  value   0.25504859387816620     
  Cycle:      7 Energy:      -443.689269  Gnorm:      3.412129  CPU:    0.083
  ** Hessian calculated **
 ALPHA BEFORE:    1.0000000000000000     
 XC BEFORE:   0.70343818504602107     
  ** Opt : line minimisation
left   ...       0.00000000    -443.68926912
centre ...       0.25000000    -449.48468537
right  ...       0.50000000    -451.16229205

left   ...       0.00000000    -443.68926912
centre ...       0.25000000    -449.48468537
right  ...       0.50000000    -451.16229205
new    ...       0.47685067    -451.25268614

__s__    ...      -0.02314933

 ALPHA AFTER:   0.47685067108025103     
 XC AFTER:   0.72895512401920792     
 SANITY CHECK:   0.47685067108025114     
 DIRECTION dim            1  value    5.3511383166099193E-002
 DIRECTION dim            2  value    9.2652888158693512E-003
 DIRECTION dim            3  value   -2.6661984852964952E-002
 DIRECTION dim            4  value   -7.7152220106957478E-002
 DIRECTION dim            5  value    7.3448336885556492E-002
 DIRECTION dim            6  value    6.8220367694464433E-003
 DIRECTION dim            7  value    7.7733306898473678E-003
 DIRECTION dim            8  value   -1.4977525703570055E-003
 DIRECTION dim            9  value    2.3058919281185356E-003
 DIRECTION dim           10  value   -1.7442990784884937E-002
 DIRECTION dim           11  value   -2.4521056636876259E-002
 DIRECTION dim           12  value    3.6074301783750817E-002
 DIRECTION dim           13  value    7.1279850440147431E-003
 DIRECTION dim           14  value    4.6340882598946323E-002
 DIRECTION dim           15  value    7.2475406178598000E-003
 DIRECTION dim           16  value    3.9291094337244288E-003
 DIRECTION dim           17  value    9.9515127868462627E-003
 DIRECTION dim           18  value   -5.6206567470873667E-003
 DIRECTION dim           19  value  -0.10931661642280154     
 DIRECTION dim           20  value   0.12513720229680930     
 DIRECTION dim           21  value    2.2366754629800537E-002
 DIRECTION dim           22  value    4.3906594702205690E-002
 DIRECTION dim           23  value   -5.7796952970639607E-003
 DIRECTION dim           24  value    9.7494871890766105E-004
 DIRECTION dim           25  value   -6.4298036902222279E-003
 DIRECTION dim           26  value   -5.1921685563964468E-002
 DIRECTION dim           27  value   -1.7083704404823109E-003
 DIRECTION dim           28  value    4.2435253022866701E-002
 DIRECTION dim           29  value   -9.0445290616209635E-004
 DIRECTION dim           30  value    2.2932897147930731E-002
 DIRECTION dim           31  value   -1.5477376687201651E-002
 DIRECTION dim           32  value   -1.2199905294184153E-002
 DIRECTION dim           33  value   -1.5844209667113356E-002
 DIRECTION dim           34  value    9.8617993079567909E-002
 DIRECTION dim           35  value   -2.3831227402080807E-003
 DIRECTION dim           36  value   -1.0827338361989250E-002
 DIRECTION dim           37  value   -1.8075911755003334E-002
 DIRECTION dim           38  value   -1.6309345873800167E-002
 DIRECTION dim           39  value    4.7695418341461805E-003
 DIRECTION dim           40  value   -8.9264483223368135E-003
 DIRECTION dim           41  value   -9.7838225034456456E-003
 DIRECTION dim           42  value   -1.2416200087323926E-002
 DIRECTION dim           43  value   -5.9238305361896650E-002
 DIRECTION dim           44  value   -3.1511309918685532E-002
 DIRECTION dim           45  value   -2.5286709934839797E-002
 DIRECTION dim           46  value   -3.9256469978990426E-003
 DIRECTION dim           47  value    2.8940999104393104E-002
 DIRECTION dim           48  value   -3.6247005866626020E-002
  Cycle:      8 Energy:      -451.252686  Gnorm:      2.999858  CPU:    0.090
 ALPHA BEFORE:   0.61032781722294349     
 XC BEFORE:   0.72895512401920792     
  ** Opt : line minimisation
left   ...       0.00000000    -451.25268614
centre ...       0.15258195    -453.13098239
right  ...       0.30516391    -454.31046104

left   ...       0.00000000    -451.25268614
centre ...       0.15258195    -453.13098239
right  ...       0.30516391    -454.31046104
new    ...       0.48640387    -454.60767574

__s__    ...       0.18123997

 ALPHA AFTER:   0.48640387481903924     
 XC AFTER:   0.74673387481899156     
 SANITY CHECK:   0.48640387481903974     
 DIRECTION dim            1  value    3.6551416878407871E-002
 DIRECTION dim            2  value    2.1112451170348559E-002
 DIRECTION dim            3  value   -1.8139626589743850E-002
 DIRECTION dim            4  value   -4.2759276306378359E-002
 DIRECTION dim            5  value    4.7055577146654821E-002
 DIRECTION dim            6  value   -3.4421164783935950E-003
 DIRECTION dim            7  value    1.0112245045138142E-002
 DIRECTION dim            8  value   -8.2133536630673645E-003
 DIRECTION dim            9  value    7.5893569859528205E-003
 DIRECTION dim           10  value   -2.3679331065977909E-003
 DIRECTION dim           11  value   -3.0300572121333418E-003
 DIRECTION dim           12  value    2.6093090861217780E-002
 DIRECTION dim           13  value    2.1616827934044090E-002
 DIRECTION dim           14  value    3.5173487192264132E-002
 DIRECTION dim           15  value   -7.0925765245062385E-003
 DIRECTION dim           16  value   -2.1265930476654153E-002
 DIRECTION dim           17  value   -5.9663947547921852E-003
 DIRECTION dim           18  value   -9.8171708247308167E-003
 DIRECTION dim           19  value    4.9816510717703114E-002
 DIRECTION dim           20  value   -1.3659842733046186E-002
 DIRECTION dim           21  value   -5.6518531178077046E-003
 DIRECTION dim           22  value    9.1383632935164577E-002
 DIRECTION dim           23  value    5.2596202409959797E-002
 DIRECTION dim           24  value   -1.4409226624400953E-002
 DIRECTION dim           25  value   -2.9152891398052504E-003
 DIRECTION dim           26  value   -6.5054176656853424E-002
 DIRECTION dim           27  value    2.4332869462029743E-003
 DIRECTION dim           28  value    4.3298002702477467E-002
 DIRECTION dim           29  value   -1.6171380113073064E-002
 DIRECTION dim           30  value    5.6862179754849865E-003
 DIRECTION dim           31  value   -3.1976824057029556E-002
 DIRECTION dim           32  value    1.5433613273878185E-003
 DIRECTION dim           33  value   -9.8220115174618011E-003
 DIRECTION dim           34  value    8.7620366572567721E-002
 DIRECTION dim           35  value   -2.0721842227489112E-002
 DIRECTION dim           36  value    2.0031978909166568E-003
 DIRECTION dim           37  value   -1.7157523594772399E-002
 DIRECTION dim           38  value   -1.0204649779847960E-002
 DIRECTION dim           39  value    9.4566871988273154E-004
 DIRECTION dim           40  value   -2.7980614200070367E-002
 DIRECTION dim           41  value    2.2824102039317659E-003
 DIRECTION dim           42  value    5.9652720956917355E-003
 DIRECTION dim           43  value   -2.7055363632377219E-002
 DIRECTION dim           44  value    1.1329241459879198E-002
 DIRECTION dim           45  value   -3.5686415732851279E-002
 DIRECTION dim           46  value    1.9633692018505448E-002
 DIRECTION dim           47  value    1.9190617831363214E-002
 DIRECTION dim           48  value   -4.1491981439436054E-002
  Cycle:      9 Energy:      -454.607676  Gnorm:      1.815858  CPU:    0.096
 ALPHA BEFORE:   0.69233843995848465     
 XC BEFORE:   0.74673387481899156     
  ** Opt : line minimisation
left   ...       0.00000000    -454.60767574
centre ...       0.17308461    -455.62619938
right  ...       0.34616922    -456.22856947

left   ...       0.00000000    -454.60767574
centre ...       0.17308461    -455.62619938
right  ...       0.34616922    -456.22856947
new    ...       0.51016182    -456.42334449

__s__    ...       0.16399260

 ALPHA AFTER:   0.51016181763419410     
 XC AFTER:   0.75562255103549747     
 SANITY CHECK:   0.51016181763419755     
 DIRECTION dim            1  value    1.7423248681616106E-002
 DIRECTION dim            2  value    2.4145381411677425E-002
 DIRECTION dim            3  value   -7.9560103155923365E-003
 DIRECTION dim            4  value    6.3716739769893282E-002
 DIRECTION dim            5  value   -4.4408109137828347E-002
 DIRECTION dim            6  value    3.2589020745875594E-003
 DIRECTION dim            7  value    1.0251353645531633E-002
 DIRECTION dim            8  value   -1.3481098488260490E-002
 DIRECTION dim            9  value    4.5989035674207169E-003
 DIRECTION dim           10  value    4.0518336780729367E-003
 DIRECTION dim           11  value   -1.0296381869214881E-002
 DIRECTION dim           12  value    1.0149086478909563E-002
 DIRECTION dim           13  value   -1.4814619502188462E-003
 DIRECTION dim           14  value    2.4225407869489248E-003
 DIRECTION dim           15  value   -1.4632629384299402E-002
 DIRECTION dim           16  value   -3.8599160168790662E-002
 DIRECTION dim           17  value    6.9269807038125405E-003
 DIRECTION dim           18  value   -7.5675832592786733E-003
 DIRECTION dim           19  value    1.3561913582872551E-002
 DIRECTION dim           20  value    1.2656171504975161E-002
 DIRECTION dim           21  value   -9.5564106802439475E-003
 DIRECTION dim           22  value    5.1876133881662012E-002
 DIRECTION dim           23  value    1.9200472134898242E-002
 DIRECTION dim           24  value   -8.2446181932957913E-003
 DIRECTION dim           25  value    2.9935112715253030E-003
 DIRECTION dim           26  value   -3.7185559623565623E-002
 DIRECTION dim           27  value    6.2824667312626672E-003
 DIRECTION dim           28  value    2.7206901859040154E-002
 DIRECTION dim           29  value   -2.7021800852969340E-002
 DIRECTION dim           30  value   -1.7855955738463149E-003
 DIRECTION dim           31  value   -1.9356393530850717E-002
 DIRECTION dim           32  value   -4.8007088142486051E-003
 DIRECTION dim           33  value   -9.8103525788906017E-003
 DIRECTION dim           34  value    2.1578733072173090E-002
 DIRECTION dim           35  value    5.0231459692171368E-003
 DIRECTION dim           36  value   -7.7149731252870192E-004
 DIRECTION dim           37  value   -5.7624733889386015E-003
 DIRECTION dim           38  value   -1.3864452166129316E-003
 DIRECTION dim           39  value    1.5724313104960089E-003
 DIRECTION dim           40  value   -1.8669952858737127E-002
 DIRECTION dim           41  value   -1.9041654521047330E-003
 DIRECTION dim           42  value    8.0550818124363616E-003
 DIRECTION dim           43  value    1.9416394872686794E-002
 DIRECTION dim           44  value    5.2102368919959806E-003
 DIRECTION dim           45  value   -2.9251414529241557E-002
 DIRECTION dim           46  value    1.0844146187855393E-002
 DIRECTION dim           47  value    2.5262712169105445E-002
 DIRECTION dim           48  value   -5.3950117472122548E-002
  Cycle:     10 Energy:      -456.423344  Gnorm:      1.266033  CPU:    0.102
 ALPHA BEFORE:   0.54517201385897551     
 XC BEFORE:   0.75562255103549747     
  ** Opt : line minimisation
left   ...       0.00000000    -456.42334449
centre ...       0.13629300    -456.87153245
right  ...       0.27258601    -457.21618189

left   ...       0.00000000    -456.42334449
centre ...       0.13629300    -456.87153245
right  ...       0.27258601    -457.21618189
new    ...       0.65811908    -457.58236884

__s__    ...       0.38553307

left   ...       0.13629300    -456.87153245
centre ...       0.27258601    -457.21618189
right  ...       0.65811908    -457.58236884
new    ...       0.62230824    -457.58750475

__s__    ...      -0.03581084

 ALPHA AFTER:   0.62230823592967655     
 XC AFTER:   0.75550066539915561     
 SANITY CHECK:   0.62230823592892792     
 DIRECTION dim            1  value   -1.9586055479390533E-004
 DIRECTION dim            2  value    7.2394246919692410E-003
 DIRECTION dim            3  value   -7.9566858433933706E-003
 DIRECTION dim            4  value    2.5070657523810960E-002
 DIRECTION dim            5  value    1.7228021321180551E-002
 DIRECTION dim            6  value   -5.0184106708583281E-003
 DIRECTION dim            7  value    6.6213668178534413E-003
 DIRECTION dim            8  value   -1.3976902021065040E-002
 DIRECTION dim            9  value    6.0511274346840283E-003
 DIRECTION dim           10  value    7.6940409264009751E-003
 DIRECTION dim           11  value   -2.0381728900525205E-002
 DIRECTION dim           12  value   -3.4999760945067376E-003
 DIRECTION dim           13  value   -3.3684670779236765E-002
 DIRECTION dim           14  value   -1.9370282881417542E-002
 DIRECTION dim           15  value   -2.9225122517633644E-003
 DIRECTION dim           16  value   -6.6540460891145778E-002
 DIRECTION dim           17  value    1.4485508108558552E-002
 DIRECTION dim           18  value   -7.8124454072214158E-003
 DIRECTION dim           19  value   -4.7725619340276283E-002
 DIRECTION dim           20  value    1.6103010157053371E-002
 DIRECTION dim           21  value   -9.3868156334946870E-003
 DIRECTION dim           22  value   -4.4278467590019898E-005
 DIRECTION dim           23  value    7.1287131116284166E-003
 DIRECTION dim           24  value   -5.6131235562590347E-003
 DIRECTION dim           25  value    1.2795490317656909E-002
 DIRECTION dim           26  value   -8.0237064449410998E-003
 DIRECTION dim           27  value    3.3868231466743014E-003
 DIRECTION dim           28  value    1.6747825344715396E-002
 DIRECTION dim           29  value   -3.2926691113556811E-002
 DIRECTION dim           30  value   -6.9219832171483137E-003
 DIRECTION dim           31  value   -1.1905625862967581E-002
 DIRECTION dim           32  value    1.2140679204917324E-003
 DIRECTION dim           33  value   -4.2449636312794697E-003
 DIRECTION dim           34  value    1.9561830415144990E-002
 DIRECTION dim           35  value    2.2913121866321370E-003
 DIRECTION dim           36  value    5.9480072580785272E-003
 DIRECTION dim           37  value    1.1147035300614486E-002
 DIRECTION dim           38  value    2.9545991424299229E-003
 DIRECTION dim           39  value   -1.1157810132935934E-003
 DIRECTION dim           40  value   -5.4848315896391811E-003
 DIRECTION dim           41  value   -4.4791462180458598E-003
 DIRECTION dim           42  value    6.7441175232706031E-003
 DIRECTION dim           43  value    2.5131616951765405E-002
 DIRECTION dim           44  value    4.8196147275615265E-003
 DIRECTION dim           45  value   -2.7557776226254500E-002
 DIRECTION dim           46  value    1.1823745547725686E-002
 DIRECTION dim           47  value   -4.9821685314928296E-002
 DIRECTION dim           48  value   -4.6522339363485515E-002
  Cycle:     11 Energy:      -457.587505  Gnorm:      1.257236  CPU:    0.109
 ALPHA BEFORE:   0.64945532183490506     
 XC BEFORE:   0.75550066539915561     
  ** Opt : line minimisation
left   ...       0.00000000    -457.58750475
centre ...       0.16236383    -458.00423842
right  ...       0.32472766    -458.36868327

left   ...       0.00000000    -457.58750475
centre ...       0.16236383    -458.00423842
right  ...       0.32472766    -458.36868327
new    ...       1.32472766    -459.24027410

__s__    ...       1.00000000

left   ...       0.16236383    -458.00423842
centre ...       0.32472766    -458.36868327
right  ...       1.32472766    -459.24027410
new    ...       1.19365893    -459.27958515

__s__    ...      -0.13106873

 ALPHA AFTER:    1.1936589321302169     
 XC AFTER:   0.75853207011022628     
 SANITY CHECK:    1.1936589321301962     
 DIRECTION dim            1  value    2.5395903548937854E-003
 DIRECTION dim            2  value    2.0602488538342982E-003
 DIRECTION dim            3  value   -9.9093368159151058E-003
 DIRECTION dim            4  value    8.1852661913669258E-003
 DIRECTION dim            5  value    3.9357817868984478E-002
 DIRECTION dim            6  value   -6.6113438308297249E-003
 DIRECTION dim            7  value   -3.7724936299524109E-004
 DIRECTION dim            8  value   -1.4563572150463101E-002
 DIRECTION dim            9  value    7.5340732945133708E-003
 DIRECTION dim           10  value   -2.6433528326574025E-003
 DIRECTION dim           11  value   -2.6047792942620919E-002
 DIRECTION dim           12  value    3.3304330207316064E-003
 DIRECTION dim           13  value    3.3968230264257481E-003
 DIRECTION dim           14  value   -1.8450311679342473E-003
 DIRECTION dim           15  value   -1.8258669093682560E-002
 DIRECTION dim           16  value   -3.7465872200255476E-002
 DIRECTION dim           17  value    2.0824687110988591E-002
 DIRECTION dim           18  value   -1.1926065791749169E-002
 DIRECTION dim           19  value   -1.5661216603305331E-002
 DIRECTION dim           20  value    2.9597638302057807E-003
 DIRECTION dim           21  value   -2.2712655989088146E-003
 DIRECTION dim           22  value    2.7196581521199775E-002
 DIRECTION dim           23  value    1.4474316299724638E-003
 DIRECTION dim           24  value   -4.0270730298830916E-003
 DIRECTION dim           25  value    2.2982776216952897E-002
 DIRECTION dim           26  value   -2.0627881295470635E-002
 DIRECTION dim           27  value    6.9042535463268379E-003
 DIRECTION dim           28  value    3.2077589351031860E-002
 DIRECTION dim           29  value   -2.9476781311956465E-002
 DIRECTION dim           30  value    1.7652159997867864E-003
 DIRECTION dim           31  value   -3.0119093353311380E-003
 DIRECTION dim           32  value    1.1949880427939104E-002
 DIRECTION dim           33  value   -3.1032996072464709E-003
 DIRECTION dim           34  value   -6.9372518922976552E-003
 DIRECTION dim           35  value    9.4598037126325130E-003
 DIRECTION dim           36  value    8.1116052211385598E-003
 DIRECTION dim           37  value    5.9038148042040569E-003
 DIRECTION dim           38  value   -5.9536869445785514E-003
 DIRECTION dim           39  value    1.7230063275525690E-004
 DIRECTION dim           40  value   -4.0983665075322983E-003
 DIRECTION dim           41  value   -6.5474645735869126E-003
 DIRECTION dim           42  value   -3.5569937451622401E-003
 DIRECTION dim           43  value    3.3692684639542399E-002
 DIRECTION dim           44  value    8.7644461367659843E-003
 DIRECTION dim           45  value   -2.6421060323585922E-002
 DIRECTION dim           46  value   -5.7218235002699149E-003
 DIRECTION dim           47  value   -5.3452277620662625E-002
 DIRECTION dim           48  value   -5.9512148337188021E-002
  Cycle:     12 Energy:      -459.279585  Gnorm:      1.945251  CPU:    0.117
 ALPHA BEFORE:   0.79577262142014449     
 XC BEFORE:   0.75853207011022628     
  ** Opt : line minimisation
left   ...       0.00000000    -459.27958515
centre ...       0.19894316    -459.94556362
right  ...       0.39788631    -460.37135989

left   ...       0.00000000    -459.27958515
centre ...       0.19894316    -459.94556362
right  ...       0.39788631    -460.37135989
new    ...       0.65110220    -460.50572730

__s__    ...       0.25321589

 ALPHA AFTER:   0.65110219679835113     
 XC AFTER:   0.75353947078095329     
 SANITY CHECK:   0.65110219679833925     
 DIRECTION dim            1  value   -7.6679196504374613E-003
 DIRECTION dim            2  value    9.5329640158356682E-004
 DIRECTION dim            3  value   -1.5935091341235892E-002
 DIRECTION dim            4  value    5.4135986492145818E-003
 DIRECTION dim            5  value    5.4975605848575651E-002
 DIRECTION dim            6  value   -6.1431059118698004E-003
 DIRECTION dim            7  value    7.1503528004613062E-003
 DIRECTION dim            8  value   -1.4869107369637941E-002
 DIRECTION dim            9  value    1.3317042107090459E-002
 DIRECTION dim           10  value   -7.4552123001977565E-003
 DIRECTION dim           11  value   -3.1608890368082489E-002
 DIRECTION dim           12  value    2.4645150384962305E-003
 DIRECTION dim           13  value   -9.8295938050691600E-003
 DIRECTION dim           14  value    8.2933334842971267E-003
 DIRECTION dim           15  value   -1.3101690533141508E-002
 DIRECTION dim           16  value   -4.0519260830124020E-002
 DIRECTION dim           17  value    2.3144535579032628E-002
 DIRECTION dim           18  value   -2.5302257974271096E-002
 DIRECTION dim           19  value   -7.4845972373477759E-002
 DIRECTION dim           20  value   -1.1475395169389021E-002
 DIRECTION dim           21  value    3.0019413532803864E-003
 DIRECTION dim           22  value    1.8423902275556524E-002
 DIRECTION dim           23  value    3.1772681590257965E-003
 DIRECTION dim           24  value   -6.8440450019283403E-003
 DIRECTION dim           25  value    2.7899254087443173E-002
 DIRECTION dim           26  value   -5.3757304028103657E-002
 DIRECTION dim           27  value    1.6944492430677579E-002
 DIRECTION dim           28  value    2.6878138358298886E-002
 DIRECTION dim           29  value   -4.0766943672645689E-002
 DIRECTION dim           30  value   -5.5912554355457196E-004
 DIRECTION dim           31  value   -8.4688959124169030E-003
 DIRECTION dim           32  value    3.2403365301635782E-002
 DIRECTION dim           33  value    7.7693534575317867E-005
 DIRECTION dim           34  value   -7.6714863013176019E-003
 DIRECTION dim           35  value    2.2859212596556114E-002
 DIRECTION dim           36  value    8.4971865115143208E-003
 DIRECTION dim           37  value    2.1645342453160210E-003
 DIRECTION dim           38  value   -1.8793617721033506E-002
 DIRECTION dim           39  value   -4.4269007621870436E-003
 DIRECTION dim           40  value    1.2454860096845399E-003
 DIRECTION dim           41  value   -4.1345853978415120E-003
 DIRECTION dim           42  value    1.3533907221756434E-003
 DIRECTION dim           43  value    7.1934738270323290E-002
 DIRECTION dim           44  value    2.4246701724865233E-002
 DIRECTION dim           45  value   -2.8419715330263277E-002
 DIRECTION dim           46  value   -3.0237431130026499E-002
 DIRECTION dim           47  value   -5.8427371945871026E-002
 DIRECTION dim           48  value   -8.0627729368142206E-002
  Cycle:     13 Energy:      -460.505727  Gnorm:      1.255175  CPU:    0.125
 ALPHA BEFORE:   0.77813739601153331     
 XC BEFORE:   0.75353947078095329     
  ** Opt : line minimisation
left   ...       0.00000000    -460.50572730
centre ...       0.19453435    -461.20474252
right  ...       0.38906870    -461.65923572

left   ...       0.00000000    -460.50572730
centre ...       0.19453435    -461.20474252
right  ...       0.38906870    -461.65923572
new    ...       0.65338263    -461.86906238

__s__    ...       0.26431393

 ALPHA AFTER:   0.65338262905106614     
 XC AFTER:   0.73013348667169964     
 SANITY CHECK:   0.65338262905106437     
 DIRECTION dim            1  value   -3.5822782958351937E-002
 DIRECTION dim            2  value   -5.4259288081270809E-003
 DIRECTION dim            3  value   -1.1246309340407544E-002
 DIRECTION dim            4  value   -1.7737683801988598E-002
 DIRECTION dim            5  value    2.7572075031802999E-002
 DIRECTION dim            6  value   -3.7405763005765292E-003
 DIRECTION dim            7  value    4.4802083823313058E-003
 DIRECTION dim            8  value   -1.5958938145990406E-002
 DIRECTION dim            9  value    6.4716673058759508E-003
 DIRECTION dim           10  value   -2.0384806620102249E-002
 DIRECTION dim           11  value   -9.9751478539757982E-003
 DIRECTION dim           12  value    5.6244982945153187E-003
 DIRECTION dim           13  value   -1.8700700439426482E-002
 DIRECTION dim           14  value    1.1560555249793381E-002
 DIRECTION dim           15  value    1.2416196259869036E-003
 DIRECTION dim           16  value    3.5412078678524590E-002
 DIRECTION dim           17  value    1.2610949811979535E-002
 DIRECTION dim           18  value   -1.4880905547101296E-002
 DIRECTION dim           19  value    2.8981303101243343E-002
 DIRECTION dim           20  value   -1.1333024782433118E-004
 DIRECTION dim           21  value    2.8415577476340686E-003
 DIRECTION dim           22  value   -1.1926393347660555E-002
 DIRECTION dim           23  value   -2.8216122180620114E-003
 DIRECTION dim           24  value   -8.0270822840351440E-003
 DIRECTION dim           25  value    2.3846696489963414E-002
 DIRECTION dim           26  value   -2.0510330395819322E-002
 DIRECTION dim           27  value    1.3113253336848117E-002
 DIRECTION dim           28  value   -5.0688806392060096E-002
 DIRECTION dim           29  value   -1.9528109499783577E-002
 DIRECTION dim           30  value   -1.6007341910879224E-002
 DIRECTION dim           31  value   -2.0251840548882877E-003
 DIRECTION dim           32  value    4.2575402132097165E-002
 DIRECTION dim           33  value    5.5573889221661810E-003
 DIRECTION dim           34  value   -1.5734315848774719E-003
 DIRECTION dim           35  value    2.5138254194217634E-002
 DIRECTION dim           36  value    2.8022478141663072E-003
 DIRECTION dim           37  value   -3.7539825787780072E-003
 DIRECTION dim           38  value   -1.5794772085743605E-002
 DIRECTION dim           39  value   -4.2000082593225390E-003
 DIRECTION dim           40  value    5.6945134328286132E-003
 DIRECTION dim           41  value   -6.8199547643779668E-003
 DIRECTION dim           42  value    6.0919004949588429E-003
 DIRECTION dim           43  value    5.3391456358762301E-002
 DIRECTION dim           44  value    7.8738723169993127E-003
 DIRECTION dim           45  value   -1.6752394375994482E-002
 DIRECTION dim           46  value   -6.1930907115910185E-002
 DIRECTION dim           47  value   -3.8270126001317489E-002
 DIRECTION dim           48  value   -7.5941812609425063E-002
  Cycle:     14 Energy:      -461.869062  Gnorm:      1.560276  CPU:    0.133
 ALPHA BEFORE:   0.67273421250616450     
 XC BEFORE:   0.73013348667169964     
  ** Opt : line minimisation
left   ...       0.00000000    -461.86906238
centre ...       0.16818355    -462.46027952
right  ...       0.33636711    -462.80170964

left   ...       0.00000000    -461.86906238
centre ...       0.16818355    -462.46027952
right  ...       0.33636711    -462.80170964
new    ...       0.48216290    -462.85865348

__s__    ...       0.14579579

 ALPHA AFTER:   0.48216289780719729     
 XC AFTER:   0.71775903869702995     
 SANITY CHECK:   0.48216289780719590     
 DIRECTION dim            1  value   -2.5664454961065671E-002
 DIRECTION dim            2  value   -1.4298310539508689E-002
 DIRECTION dim            3  value   -1.4838860916256321E-002
 DIRECTION dim            4  value   -2.9631806058820914E-002
 DIRECTION dim            5  value    1.6092533944381517E-002
 DIRECTION dim            6  value   -9.9694939042082546E-004
 DIRECTION dim            7  value    1.1958944022896108E-002
 DIRECTION dim            8  value   -2.6630667539064873E-002
 DIRECTION dim            9  value   -5.6537221248794507E-004
 DIRECTION dim           10  value   -1.5185648775940799E-002
 DIRECTION dim           11  value    9.6953476615457852E-003
 DIRECTION dim           12  value    1.3005161390351322E-002
 DIRECTION dim           13  value   -5.4494837830202951E-003
 DIRECTION dim           14  value    1.6026015898949489E-002
 DIRECTION dim           15  value   -1.8365520297609645E-002
 DIRECTION dim           16  value    2.1997562095336820E-002
 DIRECTION dim           17  value   -2.7715298316171432E-003
 DIRECTION dim           18  value   -1.3139128711606603E-002
 DIRECTION dim           19  value   -6.5884588965866896E-003
 DIRECTION dim           20  value   -1.4658628721184949E-003
 DIRECTION dim           21  value    8.6941018371368536E-004
 DIRECTION dim           22  value   -5.1105149622445910E-002
 DIRECTION dim           23  value    6.5892160439107225E-003
 DIRECTION dim           24  value   -4.4546480632619298E-003
 DIRECTION dim           25  value    3.1915346653169044E-002
 DIRECTION dim           26  value    7.3163375452432637E-003
 DIRECTION dim           27  value    2.7804051514742105E-003
 DIRECTION dim           28  value   -3.5824116248360405E-002
 DIRECTION dim           29  value    3.0189456909494594E-003
 DIRECTION dim           30  value   -1.7310849338626701E-003
 DIRECTION dim           31  value   -9.0170708232421241E-003
 DIRECTION dim           32  value    5.0876850092360558E-002
 DIRECTION dim           33  value    2.0690651027801365E-003
 DIRECTION dim           34  value    7.4933477850038493E-003
 DIRECTION dim           35  value    2.1840148446574476E-002
 DIRECTION dim           36  value   -9.6469911734662771E-004
 DIRECTION dim           37  value   -3.2485156256462533E-002
 DIRECTION dim           38  value   -7.3284965485579771E-003
 DIRECTION dim           39  value    4.9683244142953477E-003
 DIRECTION dim           40  value    9.6138811574932159E-003
 DIRECTION dim           41  value   -8.1071896214358254E-003
 DIRECTION dim           42  value    1.0201355332071912E-002
 DIRECTION dim           43  value    6.5789991120962038E-002
 DIRECTION dim           44  value   -7.9475719643327600E-004
 DIRECTION dim           45  value   -2.1499353096118556E-002
 DIRECTION dim           46  value   -4.4988010663108570E-002
 DIRECTION dim           47  value    1.2636586486264230E-002
 DIRECTION dim           48  value   -7.0466105958119002E-002
  Cycle:     15 Energy:      -462.858653  Gnorm:      1.236223  CPU:    0.141
 ALPHA BEFORE:   0.38369257693037800     
 XC BEFORE:   0.71775903869702995     
  ** Opt : line minimisation
left   ...       0.00000000    -462.85865348
centre ...       0.09592314    -463.20809963
right  ...       0.19184629    -463.42807121

left   ...       0.00000000    -462.85865348
centre ...       0.09592314    -463.20809963
right  ...       0.19184629    -463.42807121
new    ...       0.30685390    -463.52087586

__s__    ...       0.11500761

 ALPHA AFTER:   0.30685390283666769     
 XC AFTER:   0.70949554641374668     
 SANITY CHECK:   0.30685390283666963     
 DIRECTION dim            1  value   -2.6929728469778376E-002
 DIRECTION dim            2  value   -7.6634626500506628E-003
 DIRECTION dim            3  value   -1.2451343184735173E-002
 DIRECTION dim            4  value   -3.0611480832292697E-002
 DIRECTION dim            5  value    2.1097579306277536E-002
 DIRECTION dim            6  value   -3.0457724921552988E-004
 DIRECTION dim            7  value    1.3558906771433938E-002
 DIRECTION dim            8  value   -4.0128269420278195E-002
 DIRECTION dim            9  value   -5.7602615300703331E-003
 DIRECTION dim           10  value   -1.2786188131642043E-002
 DIRECTION dim           11  value    2.4718795482686465E-002
 DIRECTION dim           12  value    2.6879544385369415E-002
 DIRECTION dim           13  value   -9.6461698908893292E-002
 DIRECTION dim           14  value    5.2904776015575980E-003
 DIRECTION dim           15  value    7.7387804946084868E-003
 DIRECTION dim           16  value    2.2163740347929492E-002
 DIRECTION dim           17  value   -7.1033648612798079E-003
 DIRECTION dim           18  value   -1.2257157895099338E-002
 DIRECTION dim           19  value    1.1460976509405828E-002
 DIRECTION dim           20  value    2.5315068436763946E-003
 DIRECTION dim           21  value   -2.2639708621761427E-003
 DIRECTION dim           22  value   -1.8630855383801746E-002
 DIRECTION dim           23  value    9.9705492799879430E-003
 DIRECTION dim           24  value   -7.2430368167016946E-003
 DIRECTION dim           25  value    2.9310359356033822E-002
 DIRECTION dim           26  value    4.8595753191093653E-003
 DIRECTION dim           27  value   -4.2676616886848963E-003
 DIRECTION dim           28  value    2.9038288319856035E-003
 DIRECTION dim           29  value    2.3052413826875201E-002
 DIRECTION dim           30  value    1.4475516808405484E-002
 DIRECTION dim           31  value   -1.0742877721065981E-002
 DIRECTION dim           32  value    5.8629828348533392E-002
 DIRECTION dim           33  value   -1.9331646934670395E-003
 DIRECTION dim           34  value   -7.6213816679695720E-003
 DIRECTION dim           35  value    1.8484842376730277E-002
 DIRECTION dim           36  value   -2.2872069366272492E-003
 DIRECTION dim           37  value   -3.5497226643188579E-002
 DIRECTION dim           38  value   -2.8423772594729816E-004
 DIRECTION dim           39  value    4.5046498563773964E-003
 DIRECTION dim           40  value    5.8412332552692497E-003
 DIRECTION dim           41  value   -1.2359644495947361E-002
 DIRECTION dim           42  value    7.8272602166801347E-003
 DIRECTION dim           43  value    9.5737298035858967E-002
 DIRECTION dim           44  value   -6.6906839524079036E-003
 DIRECTION dim           45  value   -2.2337383589170694E-002
 DIRECTION dim           46  value   -5.9563047651918756E-002
 DIRECTION dim           47  value    1.6561662069870912E-002
 DIRECTION dim           48  value   -6.9265615552499757E-002
  Cycle:     16 Energy:      -463.520876  Gnorm:      1.296129  CPU:    0.148
 ALPHA BEFORE:   0.47410740709086413     
 XC BEFORE:   0.70949554641374668     
  ** Opt : line minimisation
left   ...       0.00000000    -463.52087586
centre ...       0.11852685    -463.82386541
right  ...       0.23705370    -464.02312935

left   ...       0.00000000    -463.52087586
centre ...       0.11852685    -463.82386541
right  ...       0.23705370    -464.02312935
new    ...       0.40548840    -464.12811477

__s__    ...       0.16843470

 ALPHA AFTER:   0.40548840098219058     
 XC AFTER:   0.68245930860103976     
 SANITY CHECK:   0.40548840098219047     
 DIRECTION dim            1  value   -6.6675736586345374E-002
 DIRECTION dim            2  value    1.7471051538448388E-002
 DIRECTION dim            3  value    1.0859862409923258E-002
 DIRECTION dim            4  value   -1.0724275337064975E-002
 DIRECTION dim            5  value    1.7031816449731198E-002
 DIRECTION dim            6  value    3.6960705077623392E-003
 DIRECTION dim            7  value   -9.2234935859485494E-003
 DIRECTION dim            8  value   -2.9157802074537699E-002
 DIRECTION dim            9  value   -8.8708441603528396E-003
 DIRECTION dim           10  value    2.7452824538824494E-003
 DIRECTION dim           11  value    2.5511297212707954E-002
 DIRECTION dim           12  value    1.6875179852532472E-002
 DIRECTION dim           13  value   -3.3372099895485029E-002
 DIRECTION dim           14  value    2.1156933392815825E-003
 DIRECTION dim           15  value    7.6790101325387898E-004
 DIRECTION dim           16  value    2.6640164970906842E-002
 DIRECTION dim           17  value   -9.6738670274868713E-003
 DIRECTION dim           18  value   -1.8424843439921439E-003
 DIRECTION dim           19  value   -2.9676465815187927E-002
 DIRECTION dim           20  value    1.0288018344601812E-002
 DIRECTION dim           21  value   -5.4939344336137098E-003
 DIRECTION dim           22  value    2.3788072978486569E-003
 DIRECTION dim           23  value    4.9328404620711608E-003
 DIRECTION dim           24  value   -6.3682408072267228E-003
 DIRECTION dim           25  value   -3.2618386908880989E-003
 DIRECTION dim           26  value   -1.2726251031953871E-002
 DIRECTION dim           27  value   -1.1829205970533756E-002
 DIRECTION dim           28  value   -2.0454108445618832E-002
 DIRECTION dim           29  value    2.6955254425262337E-002
 DIRECTION dim           30  value    1.2315949900027504E-002
 DIRECTION dim           31  value   -5.6822541244125379E-003
 DIRECTION dim           32  value    2.5744682478502135E-002
 DIRECTION dim           33  value   -2.7802308860948501E-003
 DIRECTION dim           34  value   -4.5243213043219179E-003
 DIRECTION dim           35  value   -3.2629576113031912E-003
 DIRECTION dim           36  value   -4.9812428444939603E-003
 DIRECTION dim           37  value   -2.5605389056402500E-002
 DIRECTION dim           38  value    7.4838025284774106E-003
 DIRECTION dim           39  value    3.4492276768184546E-003
 DIRECTION dim           40  value    1.5993994481623849E-003
 DIRECTION dim           41  value   -5.4864991979160817E-003
 DIRECTION dim           42  value    4.9290861602710838E-003
 DIRECTION dim           43  value    4.5085264665268902E-002
 DIRECTION dim           44  value   -1.2510943828830242E-002
 DIRECTION dim           45  value   -1.2463223874304177E-002
 DIRECTION dim           46  value   -2.5042772041665416E-002
 DIRECTION dim           47  value    2.2796795007977277E-002
 DIRECTION dim           48  value   -2.5106536606695904E-002
  Cycle:     17 Energy:      -464.128115  Gnorm:      1.079191  CPU:    0.156
  ** Hessian calculated **
 ALPHA BEFORE:    1.0000000000000000     
 XC BEFORE:   0.68245930860103976     
  ** Opt : line minimisation
left   ...       0.00000000    -464.12811477
centre ...       0.25000000    -464.44056274
right  ...       0.50000000    -464.66603507

left   ...       0.00000000    -464.12811477
centre ...       0.25000000    -464.44056274
right  ...       0.50000000    -464.66603507
new    ...       1.02309037    -464.27702978

__s__    ...       0.52309037

left   ...       0.25000000    -464.44056274
centre ...       0.50000000    -464.66603507
right  ...       1.02309037    -464.27702978
new    ...       0.58685594    -464.70584739

__s__    ...      -0.43623444

left   ...       0.50000000    -464.66603507
centre ...       0.58685594    -464.70584739
right  ...       1.02309037    -464.27702978
new    ...       0.62660228    -464.71465995

__s__    ...       0.03974634

 ALPHA AFTER:   0.62660227950482139     
 XC AFTER:   0.67673376559378506     
 SANITY CHECK:   0.62660227950482206     
 DIRECTION dim            1  value   -9.1374436297604229E-003
 DIRECTION dim            2  value    1.3775903755900874E-002
 DIRECTION dim            3  value   -1.8593336809531074E-003
 DIRECTION dim            4  value    1.4252203913080267E-004
 DIRECTION dim            5  value    1.7944347230735829E-002
 DIRECTION dim            6  value    1.2535393114424791E-002
 DIRECTION dim            7  value   -8.3007647077348607E-003
 DIRECTION dim            8  value   -4.7110754459326488E-003
 DIRECTION dim            9  value    8.2465817977412353E-003
 DIRECTION dim           10  value    6.1317960609040476E-002
 DIRECTION dim           11  value   -1.5993205309002452E-002
 DIRECTION dim           12  value   -1.0976000608904194E-002
 DIRECTION dim           13  value   -1.5444547440973771E-002
 DIRECTION dim           14  value    1.6270711910015834E-002
 DIRECTION dim           15  value    1.9708987037814433E-002
 DIRECTION dim           16  value    5.2674595761619349E-002
 DIRECTION dim           17  value    2.3634647824600064E-002
 DIRECTION dim           18  value   -4.0684670294653009E-002
 DIRECTION dim           19  value    5.2140521975489525E-002
 DIRECTION dim           20  value   -9.7694815881775848E-003
 DIRECTION dim           21  value   -1.2714672011841135E-002
 DIRECTION dim           22  value    4.2105241494823975E-002
 DIRECTION dim           23  value   -1.0781394214163454E-002
 DIRECTION dim           24  value   -4.8791505947688319E-003
 DIRECTION dim           25  value    4.9263474466499355E-002
 DIRECTION dim           26  value   -5.5961391820876089E-003
 DIRECTION dim           27  value   -1.6987558698639191E-002
 DIRECTION dim           28  value   -3.4091604730458039E-002
 DIRECTION dim           29  value    3.7331417353157911E-002
 DIRECTION dim           30  value    1.7925338439981137E-002
 DIRECTION dim           31  value    1.4695757617025321E-003
 DIRECTION dim           32  value   -2.5318474836546569E-002
 DIRECTION dim           33  value    1.8542300542626674E-002
 DIRECTION dim           34  value    4.2071857639056580E-004
 DIRECTION dim           35  value   -1.6997516565925647E-004
 DIRECTION dim           36  value   -4.0801749149258710E-003
 DIRECTION dim           37  value   -1.5442600999456666E-002
 DIRECTION dim           38  value    2.4518045434175535E-002
 DIRECTION dim           39  value    8.9471110532294527E-003
 DIRECTION dim           40  value    6.3001140192117458E-002
 DIRECTION dim           41  value   -9.9312346739728607E-003
 DIRECTION dim           42  value   -1.3374272002182809E-002
 DIRECTION dim           43  value    9.9825048883262131E-004
 DIRECTION dim           44  value    9.4669166798691407E-003
 DIRECTION dim           45  value   -6.1460387196462893E-002
 DIRECTION dim           46  value   -5.9998802799976089E-002
 DIRECTION dim           47  value    6.5791157977535264E-002
 DIRECTION dim           48  value   -5.1391704097234880E-003
  Cycle:     18 Energy:      -464.714660  Gnorm:      0.966557  CPU:    0.170
  ** Hessian calculated **
 ALPHA BEFORE:    1.0000000000000000     
 XC BEFORE:   0.67673376559378506     
  ** Opt : line minimisation
left   ...       0.00000000    -464.71465995
centre ...       0.25000000    -465.29848767
right  ...       0.50000000    -465.44886050

left   ...       0.00000000    -464.71465995
centre ...       0.25000000    -465.29848767
right  ...       0.50000000    -465.44886050
new    ...       0.46172922    -465.47107022

__s__    ...      -0.03827078

 ALPHA AFTER:   0.46172922337660982     
 XC AFTER:   0.66138046208278378     
 SANITY CHECK:   0.46172922337660904     
 DIRECTION dim            1  value   -3.3251747417508318E-002
 DIRECTION dim            2  value    1.4875133358813065E-002
 DIRECTION dim            3  value   -3.8891569730666847E-002
 DIRECTION dim            4  value   -3.4729007755205842E-002
 DIRECTION dim            5  value   -1.4870332925655783E-002
 DIRECTION dim            6  value   -1.8640690226693141E-002
 DIRECTION dim            7  value   -7.1358342539098743E-002
 DIRECTION dim            8  value   -5.1332758673863804E-002
 DIRECTION dim            9  value    1.2713498042775464E-003
 DIRECTION dim           10  value    3.7745191578320229E-002
 DIRECTION dim           11  value  -0.13846862367107413     
 DIRECTION dim           12  value    2.2085270935832978E-002
 DIRECTION dim           13  value   -9.7549952963841294E-002
 DIRECTION dim           14  value    1.2953725100757261E-002
 DIRECTION dim           15  value   -4.8426337380512524E-002
 DIRECTION dim           16  value    1.0058266216352427E-002
 DIRECTION dim           17  value    3.2153012108100607E-002
 DIRECTION dim           18  value   -3.5432433427555136E-002
 DIRECTION dim           19  value   -8.3472996460039542E-002
 DIRECTION dim           20  value    2.3860760065097901E-002
 DIRECTION dim           21  value   -3.9128342154640859E-002
 DIRECTION dim           22  value    8.3834206144496298E-002
 DIRECTION dim           23  value    5.1355534717105106E-002
 DIRECTION dim           24  value   -2.4325118984186350E-002
 DIRECTION dim           25  value   -2.6560821796184780E-002
 DIRECTION dim           26  value   -1.4612494133755349E-002
 DIRECTION dim           27  value   -3.2755379736696395E-003
 DIRECTION dim           28  value   -5.2084407456580925E-002
 DIRECTION dim           29  value   -2.5543585115096357E-002
 DIRECTION dim           30  value    1.0114184954411007E-002
[...]

__s__    ...       0.19016472

 ALPHA AFTER:   0.69016471740942387     
 XC AFTER:   0.50631656634637012     
 SANITY CHECK:   0.69016471740948437     
 DIRECTION dim            1  value   -6.1153555378534415E-004
 DIRECTION dim            2  value    3.0169838180025801E-004
 DIRECTION dim            3  value   -2.6950347103424870E-004
 DIRECTION dim            4  value   -8.0306021923641838E-004
 DIRECTION dim            5  value   -3.0787299687244282E-004
 DIRECTION dim            6  value    9.3842922673474107E-004
 DIRECTION dim            7  value   -5.1666132108617031E-004
 DIRECTION dim            8  value   -1.6606784969361687E-003
 DIRECTION dim            9  value    8.4384271653023654E-005
 DIRECTION dim           10  value    9.7772396942895832E-006
 DIRECTION dim           11  value   -3.7190561380340569E-003
 DIRECTION dim           12  value   -1.4976461907791470E-004
 DIRECTION dim           13  value    4.5583573680823224E-004
 DIRECTION dim           14  value   -4.9450317769012935E-005
 DIRECTION dim           15  value   -2.1052678500366244E-004
 DIRECTION dim           16  value    3.4378648775521865E-004
 DIRECTION dim           17  value    4.5125719068917934E-005
 DIRECTION dim           18  value   -1.6986941919911798E-005
 DIRECTION dim           19  value    8.6508421743602829E-004
 DIRECTION dim           20  value    6.6069911955699955E-004
 DIRECTION dim           21  value    1.2171163701420143E-004
 DIRECTION dim           22  value    1.0461690361074220E-003
 DIRECTION dim           23  value   -1.2155116968928666E-004
 DIRECTION dim           24  value   -3.4183031261908123E-004
 DIRECTION dim           25  value    3.0481582889244534E-003
 DIRECTION dim           26  value    3.4853347009357796E-003
 DIRECTION dim           27  value   -1.2221957563603920E-004
 DIRECTION dim           28  value    4.7813073295472421E-004
 DIRECTION dim           29  value    9.3811975814348642E-004
 DIRECTION dim           30  value    3.5692185373774907E-004
 DIRECTION dim           31  value   -2.4017784984520711E-003
 DIRECTION dim           32  value    8.7457386363179392E-004
 DIRECTION dim           33  value   -9.4067546325544895E-005
 DIRECTION dim           34  value   -1.4472247828288887E-004
 DIRECTION dim           35  value    1.5521478046749159E-004
 DIRECTION dim           36  value    3.2740717323773773E-004
 DIRECTION dim           37  value    3.5371035543720216E-004
 DIRECTION dim           38  value   -7.1566529860917294E-006
 DIRECTION dim           39  value   -2.4592283721590509E-004
 DIRECTION dim           40  value    1.4777482965269409E-003
 DIRECTION dim           41  value    5.0379527763667031E-005
 DIRECTION dim           42  value   -1.4795173940610870E-005
 DIRECTION dim           43  value    2.2003114791836402E-003
 DIRECTION dim           44  value    2.1517927447350178E-004
 DIRECTION dim           45  value   -1.0144468431077928E-003
 DIRECTION dim           46  value   -3.4250923699742067E-004
 DIRECTION dim           47  value   -2.0736180502678196E-003
 DIRECTION dim           48  value    2.1989511059824544E-003
  Cycle:     61 Energy:      -470.013884  Gnorm:      0.011637  CPU:    0.447
 ALPHA BEFORE:    1.5815182834358261     
 XC BEFORE:   0.50631656634637012     
  ** Opt : line minimisation
left   ...       0.00000000    -470.01388364
centre ...       0.39537957    -470.01414063
right  ...       0.79075914    -470.01425379

left   ...       0.00000000    -470.01388364
centre ...       0.39537957    -470.01414063
right  ...       0.79075914    -470.01425379
new    ...       0.90414652    -470.01426344

__s__    ...       0.11338738

 ALPHA AFTER:   0.90414652210205115     
 XC AFTER:   0.50607642073855952     
 SANITY CHECK:   0.90414652210236768     
 DIRECTION dim            1  value   -2.6560474650967603E-004
 DIRECTION dim            2  value    1.0694170563440294E-004
 DIRECTION dim            3  value   -1.0284921404774805E-004
 DIRECTION dim            4  value   -3.1432767482236171E-004
 DIRECTION dim            5  value   -1.4766595990230020E-004
 DIRECTION dim            6  value    3.4855273368060316E-004
 DIRECTION dim            7  value   -2.4823934602799459E-004
 DIRECTION dim            8  value   -6.9453705430132695E-004
 DIRECTION dim            9  value    2.4959529640061548E-005
 DIRECTION dim           10  value   -9.0957268245094136E-005
 DIRECTION dim           11  value   -1.5743397279449471E-003
 DIRECTION dim           12  value   -8.6228540338434439E-005
 DIRECTION dim           13  value    1.2374709402017135E-004
 DIRECTION dim           14  value   -3.9025297853810504E-005
 DIRECTION dim           15  value   -6.9320996381363572E-005
 DIRECTION dim           16  value    2.5504343708044141E-005
 DIRECTION dim           17  value   -8.0907135647344665E-006
 DIRECTION dim           18  value   -1.3164436758409805E-005
 DIRECTION dim           19  value    2.9893403554791844E-004
 DIRECTION dim           20  value    2.7263547400968694E-004
 DIRECTION dim           21  value    5.4917515551769152E-005
 DIRECTION dim           22  value    4.0665139306742763E-004
 DIRECTION dim           23  value   -6.5803933603766120E-005
 DIRECTION dim           24  value   -1.3641342425081031E-004
 DIRECTION dim           25  value    1.0216162669841086E-003
 DIRECTION dim           26  value    1.3688236610803664E-003
 DIRECTION dim           27  value   -4.3039856520290219E-005
 DIRECTION dim           28  value    1.5339759848609672E-004
 DIRECTION dim           29  value    3.6615598842738021E-004
 DIRECTION dim           30  value    1.1896908060945617E-004
 DIRECTION dim           31  value   -8.6646978146775566E-004
 DIRECTION dim           32  value    2.9729880649144062E-004
 DIRECTION dim           33  value   -3.5007983183219740E-005
 DIRECTION dim           34  value   -4.9385505987491424E-005
 DIRECTION dim           35  value    5.0013764729294792E-005
 DIRECTION dim           36  value    1.2514360159250918E-004
 DIRECTION dim           37  value    8.9901645211097039E-005
 DIRECTION dim           38  value   -2.1661713090204982E-005
 DIRECTION dim           39  value   -8.6213558921858688E-005
 DIRECTION dim           40  value    4.8717166212832531E-004
 DIRECTION dim           41  value   -2.3535254787302243E-005
 DIRECTION dim           42  value   -1.5180852776345240E-005
 DIRECTION dim           43  value    1.4004883508487915E-003
 DIRECTION dim           44  value    1.2818127739708056E-004
 DIRECTION dim           45  value   -3.6132548899128709E-004
 DIRECTION dim           46  value   -1.2993593003248838E-004
 DIRECTION dim           47  value   -1.0160309153099724E-003
 DIRECTION dim           48  value    1.4078028753381753E-003
  Cycle:     62 Energy:      -470.014263  Gnorm:      0.003947  CPU:    0.450
 ALPHA BEFORE:    6.4347904534252898     
 XC BEFORE:   0.50607642073855952     
  ** Opt : line minimisation
left   ...       0.00000000    -470.01426344
centre ...       1.00000000    -470.01427650
right  ...       2.00000000    -470.01426546

left   ...       0.00000000    -470.01426344
centre ...       1.00000000    -470.01427650
right  ...       2.00000000    -470.01426546
new    ...       1.04174653    -470.01427652

__s__    ...      -0.95825347

 ALPHA AFTER:    1.0417465275353954     
 XC AFTER:   0.50602419426976619     
 SANITY CHECK:    1.0417465275372237     
 DIRECTION dim            1  value   -5.0133566479740329E-005
 DIRECTION dim            2  value    3.9382780971649915E-007
 DIRECTION dim            3  value   -3.9375176729036755E-007
 DIRECTION dim            4  value   -2.6535441286241614E-005
 DIRECTION dim            5  value   -3.0574693263095079E-005
 DIRECTION dim            6  value    6.4524359964479889E-006
 DIRECTION dim            7  value   -5.1234483462565755E-005
 DIRECTION dim            8  value   -8.4579372590553670E-005
 DIRECTION dim            9  value   -2.1596512704146882E-006
 DIRECTION dim           10  value   -7.6338866071030118E-005
 DIRECTION dim           11  value   -1.8281159924074644E-004
 DIRECTION dim           12  value   -1.5798023215189963E-005
 DIRECTION dim           13  value   -3.6854048139586626E-005
 DIRECTION dim           14  value   -1.5705571706422789E-006
 DIRECTION dim           15  value    5.8826144327580353E-006
 DIRECTION dim           16  value   -7.8935043647395582E-005
 DIRECTION dim           17  value   -3.7194921096796082E-006
 DIRECTION dim           18  value   -4.7631572005190840E-006
 DIRECTION dim           19  value   -1.1300947821261808E-005
 DIRECTION dim           20  value    2.6506008353432339E-005
 DIRECTION dim           21  value    7.4384879410347557E-006
 DIRECTION dim           22  value   -1.1489371905436458E-005
 DIRECTION dim           23  value   -1.4828662246474145E-005
 DIRECTION dim           24  value   -6.0018991172310860E-006
 DIRECTION dim           25  value   -3.4133510013928510E-005
 DIRECTION dim           26  value    1.3780079342323246E-004
 DIRECTION dim           27  value    4.2417824392920300E-006
 DIRECTION dim           28  value   -3.2831155540057001E-005
 DIRECTION dim           29  value    4.3781580451573206E-005
 DIRECTION dim           30  value   -2.6007581309317922E-006
 DIRECTION dim           31  value   -3.8557167837295349E-005
 DIRECTION dim           32  value   -1.9462362448018577E-005
 DIRECTION dim           33  value   -5.7878828013645510E-006
 DIRECTION dim           34  value   -1.6947763909110677E-005
 DIRECTION dim           35  value   -8.2764847888359942E-006
 DIRECTION dim           36  value    8.1978805189355824E-006
 DIRECTION dim           37  value   -3.7548440869211554E-005
 DIRECTION dim           38  value   -1.0770495654552985E-005
 DIRECTION dim           39  value    1.6836800811828504E-006
 DIRECTION dim           40  value   -4.0032481696364449E-005
 DIRECTION dim           41  value   -1.7627995909092525E-005
 DIRECTION dim           42  value   -3.3761362646650276E-006
 DIRECTION dim           43  value    2.3746973303914891E-004
 DIRECTION dim           44  value    3.5326083782175608E-005
 DIRECTION dim           45  value   -1.0066501848231321E-005
 DIRECTION dim           46  value   -2.8872448569783468E-005
 DIRECTION dim           47  value   -6.9602945287442562E-005
 DIRECTION dim           48  value    3.2215641283102358E-004
  Cycle:     63 Energy:      -470.014277  Gnorm:      0.000855  CPU:    0.454
 ALPHA BEFORE:    4.0491857141682326     
 XC BEFORE:   0.50602419426976619     
  ** Opt : line minimisation
left   ...       0.00000000    -470.01427652
centre ...       1.00000000    -470.01427795
right  ...       2.00000000    -470.01427728

left   ...       0.00000000    -470.01427652
centre ...       1.00000000    -470.01427795
right  ...       2.00000000    -470.01427728
new    ...       1.18113504    -470.01427799

__s__    ...      -0.81886496

 ALPHA AFTER:    1.1811350419299926     
 XC AFTER:   0.50603634381810869     
 SANITY CHECK:    1.1811350419303355     
 DIRECTION dim            1  value    1.0286332985806008E-005
 DIRECTION dim            2  value   -5.1993490656822494E-006
 DIRECTION dim            3  value    6.9973410849437568E-006
 DIRECTION dim            4  value    1.1824195123393321E-005
 DIRECTION dim            5  value    3.2053112122604712E-007
 DIRECTION dim            6  value   -1.4836016147123945E-005
 DIRECTION dim            7  value    9.8832803498820117E-006
 DIRECTION dim            8  value    3.1294871305473953E-005
 DIRECTION dim            9  value    9.8808556887049075E-007
 DIRECTION dim           10  value    2.7350267467649363E-006
 DIRECTION dim           11  value    7.9033439342515629E-005
 DIRECTION dim           12  value    5.4020336412789073E-006
 DIRECTION dim           13  value   -5.8945463482832530E-006
 DIRECTION dim           14  value    7.8667846224955280E-006
 DIRECTION dim           15  value    5.9369682425071778E-006
 DIRECTION dim           16  value   -1.3373809225727282E-006
 DIRECTION dim           17  value    6.1050658817307823E-006
 DIRECTION dim           18  value    1.0467528893569456E-006
 DIRECTION dim           19  value   -1.4009194755098466E-005
 DIRECTION dim           20  value   -6.8868066156195129E-006
 DIRECTION dim           21  value   -3.4057386862588717E-006
 DIRECTION dim           22  value   -1.8778592918670401E-005
 DIRECTION dim           23  value    4.1687665347682485E-006
 DIRECTION dim           24  value    1.1036754314279415E-005
 DIRECTION dim           25  value   -4.1191014667229216E-005
 DIRECTION dim           26  value   -5.1638635740246616E-005
 DIRECTION dim           27  value    4.1017393770820166E-006
 DIRECTION dim           28  value   -7.0701276296776548E-006
 DIRECTION dim           29  value   -1.0698132837196631E-005
 DIRECTION dim           30  value   -3.7353072527401248E-006
 DIRECTION dim           31  value    3.6968076939269167E-005
 DIRECTION dim           32  value   -1.9796049582126990E-005
 DIRECTION dim           33  value    4.1362012137527780E-006
 DIRECTION dim           34  value    1.2031687796424755E-006
 DIRECTION dim           35  value   -4.2875047910885651E-006
 DIRECTION dim           36  value   -3.9403627218499978E-006
 DIRECTION dim           37  value   -4.0967672607118936E-006
 DIRECTION dim           38  value    3.1307812470674238E-006
 DIRECTION dim           39  value    5.9207364200394085E-006
 DIRECTION dim           40  value   -2.1756903872100189E-005
 DIRECTION dim           41  value    7.0404724354972319E-006
 DIRECTION dim           42  value    2.4922355345983085E-006
 DIRECTION dim           43  value   -1.6172203790648856E-005
 DIRECTION dim           44  value    8.9287377285013107E-007
 DIRECTION dim           45  value    1.5741094084770469E-005
 DIRECTION dim           46  value   -1.1175161477253949E-005
 DIRECTION dim           47  value    2.5171498337016448E-005
 DIRECTION dim           48  value    7.9638977030686646E-006


  **** Optimisation achieved ****


  Final energy =    -470.01427799 eV
  Final Gnorm  =       0.00021065

  Components of energy : 

--------------------------------------------------------------------------------
  Interatomic potentials     =          69.57873161 eV    
  Monopole - monopole (real) =        -255.33144816 eV    
  Monopole - monopole (recip)=        -284.26156143 eV    
  Monopole - monopole (total)=        -539.59300960 eV    
--------------------------------------------------------------------------------
  Total lattice energy       =        -470.01427799 eV    
--------------------------------------------------------------------------------
  Total lattice energy       =          -45349.1930 kJ/(mole unit cells)
--------------------------------------------------------------------------------

  Final fractional coordinates of atoms :

--------------------------------------------------------------------------------
   No.  Atomic        x           y          z          Radius
        Label       (Frac)      (Frac)     (Frac)       (Angs) 
--------------------------------------------------------------------------------
     1  O     c     0.500000    0.500000    0.750000    0.000000
     2  O     c     0.506036    0.012719    0.762780    0.000000
     3  O     c     0.936583    0.721468    0.654847    0.000000
     4  O     c     0.942117    0.284335    0.927363    0.000000
     5  O     c     0.970164    0.807124    0.201550    0.000000
     6  O     c     0.526289    0.063649    0.099535    0.000000
     7  O     c     0.533837    0.552132    0.076927    0.000000
     8  O     c     0.478490    0.624038    0.407789    0.000000
     9  O     c     0.702056    0.020545    0.443935    0.000000
    10  Sr    c     0.151523    0.330238    0.226129    0.000000
    11  Sr    c     0.144177    0.772345    0.927934    0.000000
    12  Sr    c     0.076018    0.250875    0.625873    0.000000
    13  Ti    c     0.607915    0.763585    0.613517    0.000000
    14  Ti    c     0.601071    0.287215    0.922748    0.000000
    15  Ti    c     0.640262    0.819864    0.239329    0.000000
--------------------------------------------------------------------------------

  Final Cartesian lattice vectors (Angstroms) :

        5.330053   -0.195464   -0.121667
       -0.195464    5.256066   -0.142239
       -0.243334   -0.284478    8.074926


  Final cell parameters and derivatives :

--------------------------------------------------------------------------------
       a            5.335024 Angstrom     dE/de1(xx)     0.005863 eV/strain
       b            5.261622 Angstrom     dE/de2(yy)     0.003761 eV/strain
       c            8.083599 Angstrom     dE/de3(zz)     0.001383 eV/strain
       alpha       93.499565 Degrees      dE/de4(yz)     0.000390 eV/strain
       beta        92.955809 Degrees      dE/de5(xz)    -0.000330 eV/strain
       gamma       94.191890 Degrees      dE/de6(xy)     0.002011 eV/strain
--------------------------------------------------------------------------------

  Primitive cell volume =           225.526627 Angs**3

  Density of cell =      4.053363 g/cm**3

  Non-primitive cell volume =           225.526627 Angs**3


  Final internal derivatives :

--------------------------------------------------------------------------------
   No.  Atomic          a             b             c           Radius
        Label          (eV)          (eV)          (eV)        (eV/Angs)
--------------------------------------------------------------------------------
      1 O     c       0.000000      0.000000      0.000000      0.000000
      2 O     c      -0.000344      0.000228      0.000295      0.000000
      3 O     c       0.003187      0.000220     -0.000332      0.000000
      4 O     c       0.002974     -0.000512     -0.000360      0.000000
      5 O     c       0.002096     -0.000729     -0.000439      0.000000
      6 O     c      -0.000006     -0.000293      0.000254      0.000000
      7 O     c      -0.000531      0.000162     -0.000340      0.000000
      8 O     c      -0.000920     -0.001448     -0.000006      0.000000
      9 O     c       0.000548      0.001224     -0.000224      0.000000
     10 Sr    c       0.000084      0.000349      0.000925      0.000000
     11 Sr    c      -0.000183      0.000243      0.000055      0.000000
     12 Sr    c      -0.000081      0.000142     -0.001183      0.000000
     13 Ti    c      -0.002072      0.000304     -0.000375      0.000000
     14 Ti    c      -0.002087      0.000491     -0.000109      0.000000
     15 Ti    c      -0.002171      0.000340      0.000858      0.000000
--------------------------------------------------------------------------------
  Maximum abs         0.003187      0.001448      0.001183      0.000000
--------------------------------------------------------------------------------


  Time to end of optimisation =       0.4567 seconds

 Exiting ------OPTIONS------

  Peak dynamic memory used =       0.60 MB 


  Timing analysis for GULP :

--------------------------------------------------------------------------------
  Task / Subroutine                                          Time (Seconds)
--------------------------------------------------------------------------------
  Calculation of reciprocal space energy and derivatives          0.0441
  Calculation of real space energy and derivatives                0.3986
  Calculation and manipulation of Hessian matrix                  0.0002
  Calculation of matrix inversion                                 0.0007
  Global summation overhead                                       0.0002
--------------------------------------------------------------------------------
  Total CPU time                                                  0.4567
--------------------------------------------------------------------------------


  Job Finished at 13:26.17 21st February   2020                               

