********************************************************************************
*                       GENERAL UTILITY LATTICE PROGRAM                        *
*                                 Julian Gale                                  *
*                       Curtin Institute for Computation                       *
*                           Department of Chemistry                            *
*                    Curtin University, Western Australia                      *
********************************************************************************
* Version = 5.1.1 * Last modified =  25th August 2019                          *
********************************************************************************
*  optimise     - perform optimisation run                                     *
*  conp         - constant pressure calculation                                *
*  nosymmetry   - turn off symmetry after initial structure generation         *
*  full         - generate full unit cell when symmetry is removed             *
********************************************************************************
* ASE calculation                                                              *
********************************************************************************


  Job Started  at 13:26.16 21st February   2020                               

  Number of CPUs =     1


  Total number of configurations input =      1

********************************************************************************
*  Input for Configuration =   1                                               *
********************************************************************************

  Formula = O9Sr3Ti3                                                    

  Number of irreducible atoms/shells =      15


  Total number atoms/shells =      15

  Dimensionality = 3               :  Bulk   



  Cartesian lattice vectors (Angstroms) :

        4.000000    0.000000    0.000000
        0.000000    6.000000    0.000000
        0.000000    0.000000   10.000000

  Cell parameters (Angstroms/Degrees):

  a =       4.0000    alpha =  90.0000
  b =       6.0000    beta  =  90.0000
  c =      10.0000    gamma =  90.0000

  Initial cell volume =         240.000000 Angs**3

  Temperature of configuration =  0.000     K 

  Pressure of configuration =         0.000 GPa 

  Fractional coordinates of asymmetric unit :

--------------------------------------------------------------------------------
   No.  Atomic       x           y          z         Charge      Occupancy
        Label      (Frac)      (Frac)     (Frac)        (e)         (Frac)  
--------------------------------------------------------------------------------
      1 O     c    0.000000    0.333330    0.800000    -2.00000    1.000000    
      2 O     c    0.000000 *  0.000000 *  0.800000 *  -2.00000    1.000000    
      3 O     c    0.500000 *  0.666670 *  0.600000 *  -2.00000    1.000000    
      4 O     c    0.000000 *  0.666670 *  0.600000 *  -2.00000    1.000000    
      5 O     c    0.000000 *  0.333330 *  0.000000 *  -2.00000    1.000000    
      6 O     c    0.000000 *  0.666670 *  0.800000 *  -2.00000    1.000000    
      7 O     c    0.000000 *  0.000000 *  0.200000 *  -2.00000    1.000000    
      8 O     c    0.500000 *  0.333330 *  0.200000 *  -2.00000    1.000000    
      9 O     c    0.000000 *  0.000000 *  0.000000 *  -2.00000    1.000000    
     10 Sr    c    0.750000 *  0.166670 *  0.900000 *   2.00000    1.000000    
     11 Sr    c    0.250000 *  0.166670 *  0.900000 *   2.00000    1.000000    
     12 Sr    c    0.250000 *  0.166670 *  0.100000 *   2.00000    1.000000    
     13 Ti    c    0.750000 *  0.166670 *  0.700000 *   4.00000    1.000000    
     14 Ti    c    0.250000 *  0.166670 *  0.500000 *   4.00000    1.000000    
     15 Ti    c    0.250000 *  0.166670 *  0.700000 *   4.00000    1.000000    
--------------------------------------------------------------------------------



********************************************************************************
*  General input information                                                   *
********************************************************************************

  Species output for all configurations : 

--------------------------------------------------------------------------------
  Species    Type    Atomic    Atomic    Charge       Radii (Angs)     Library
                     Number     Mass       (e)     Cova   Ionic  VDW   Symbol
--------------------------------------------------------------------------------
    O        Core        8      16.00  -2.000000   0.730  0.000  1.360          
    Sr       Core       38      87.62   2.000000   1.120  0.000  1.670          
    Ti       Core       22      47.88   4.000000   1.470  0.000  2.190          
--------------------------------------------------------------------------------


  Lattice summation method               =    Ewald          (3-D)
                                         =    Parry          (2-D)
                                         =    Saunders et al (1-D)
  Accuracy factor for lattice sums       =   12.000


  Time limit =      15.00 seconds

  Maximum range for interatomic potentials =    100000.000000 Angstroms

  General interatomic potentials :

--------------------------------------------------------------------------------
Atom  Types   Potential      Parameter       Value         Units   Cutoffs(Ang)
  1     2                                                            Min /  Max 
--------------------------------------------------------------------------------
O    c Sr   c Buckingham    Buckingham A     1952.3900    eV        0.000 10.000
                            Buckingham rho  0.33685000    Ang       
                            Buckingham C     19.220000    eV*Ang^6  
--------------------------------------------------------------------------------
O    c Ti   c Buckingham    Buckingham A     4590.7279    eV        0.000 10.000
                            Buckingham rho  0.26100000    Ang       
                            Buckingham C     0.0000000    eV*Ang^6  
--------------------------------------------------------------------------------
O    c O    c Buckingham    Buckingham A     1388.7700    eV        0.000 10.000
                            Buckingham rho  0.36262000    Ang       
                            Buckingham C     175.00000    eV*Ang^6  
--------------------------------------------------------------------------------
 Calling ------OPTIONS------

********************************************************************************
*  Output for configuration   1                                                *
********************************************************************************


  Components of energy : 

--------------------------------------------------------------------------------
  Interatomic potentials     =         184.55920138 eV    
  Monopole - monopole (real) =          -3.58671899 eV    
  Monopole - monopole (recip)=        -195.13406381 eV    
  Monopole - monopole (total)=        -198.72078279 eV    
--------------------------------------------------------------------------------
  Total lattice energy       =         -14.16158142 eV    
--------------------------------------------------------------------------------
  Total lattice energy       =           -1366.3761 kJ/(mole unit cells)
--------------------------------------------------------------------------------


  Number of variables =       48

  Maximum number of calculations  =          1000
  Maximum Hessian update interval =            10
  Maximum step size               =   1.000000000
  Maximum parameter tolerance     =   0.000010000
  Maximum function  tolerance     =   0.000010000
  Maximum gradient  tolerance     =   0.001000000
  Maximum gradient  component     =   0.010000000

  Cell parameters to be optimised using strains

  Newton-Raphson optimiser to be used

  BFGS hessian update to be used

  Lower half triangular hessian to be used

  Start of bulk optimisation :

  Cycle:      0 Energy:       -14.161581  Gnorm:     35.512526  CPU:    0.014
  ** Hessian calculated **
 ALPHA BEFORE:    1.0000000000000000     
 XC BEFORE:    0.0000000000000000     
  ** Opt : line minimisation
left   ...       0.00000000     -14.16158142
centre ...       0.25000000     -23.08774784
right  ...       0.50000000     -31.11664048

left   ...       0.00000000     -14.16158142
centre ...       0.25000000     -23.08774784
right  ...       0.50000000     -31.11664048
new    ...       1.50000000     -53.86050424

__s__    ...       1.00000000

left   ...       0.25000000     -23.08774784
centre ...       0.50000000     -31.11664048
right  ...       1.50000000     -53.86050424
new    ...       2.50000000     -58.87369094

__s__    ...       1.00000000

left   ...       0.50000000     -31.11664048
centre ...       1.50000000     -53.86050424
right  ...       2.50000000     -58.87369094
new    ...       2.28274085     -59.53156609

__s__    ...      -0.21725915

left   ...       1.50000000     -53.86050424
centre ...       2.28274085     -59.53156609
right  ...       2.50000000     -58.87369094
new    ...       2.24399344     -59.54120879

__s__    ...      -0.03874741

 ALPHA AFTER:    2.2439934382753832     
 XC AFTER:    8.1414040304773850E-004
 SANITY CHECK:    2.2439934382753828     
 DIRECTION dim            1  value    3.6280872713845573E-004
 DIRECTION dim            2  value    4.3832490986981016E-004
 DIRECTION dim            3  value   -3.2826483230562571E-003
 DIRECTION dim            4  value   -2.3165066334847724E-004
 DIRECTION dim            5  value   -3.8645358999867577E-006
 DIRECTION dim            6  value   -4.1674324112608366E-003
 DIRECTION dim            7  value    3.3008980788094985E-004
 DIRECTION dim            8  value    3.7607993237999538E-006
 DIRECTION dim            9  value   -2.8741656695949035E-003
 DIRECTION dim           10  value   -3.7665739756134672E-003
 DIRECTION dim           11  value    3.4564157474662864E-003
 DIRECTION dim           12  value    2.8084756623127690E-004
 DIRECTION dim           13  value   -1.6519131763664263E-004
 DIRECTION dim           14  value   -1.2370518748822166E-005
 DIRECTION dim           15  value   -9.1597574746394324E-006
 DIRECTION dim           16  value   -9.5734094147681883E-003
 DIRECTION dim           17  value   -3.9531275337734749E-003
 DIRECTION dim           18  value    5.6170065287028479E-003
 DIRECTION dim           19  value    3.7217120755348400E-003
 DIRECTION dim           20  value    2.9477766714191269E-003
 DIRECTION dim           21  value    1.7017395326207330E-002
 DIRECTION dim           22  value   -6.1701343702321772E-003
 DIRECTION dim           23  value   -3.6877987566104539E-003
 DIRECTION dim           24  value   -3.0072390830819236E-004
 DIRECTION dim           25  value   -4.8690393523913343E-003
 DIRECTION dim           26  value   -6.1481161969742843E-007
 DIRECTION dim           27  value    2.1688614281788407E-003
 DIRECTION dim           28  value    5.3960058178127981E-003
 DIRECTION dim           29  value   -7.0031820277753035E-007
 DIRECTION dim           30  value    1.7086193561527490E-003
 DIRECTION dim           31  value    3.7466650891781438E-003
 DIRECTION dim           32  value   -2.8762507044960154E-007
 DIRECTION dim           33  value    6.8858290453623896E-004
 DIRECTION dim           34  value    4.9301108588082493E-004
 DIRECTION dim           35  value    1.1596519068999793E-007
 DIRECTION dim           36  value    3.4225203421994364E-003
 DIRECTION dim           37  value    4.1534656566834171E-003
 DIRECTION dim           38  value    1.9632385985739063E-008
 DIRECTION dim           39  value   -6.6864383005295659E-003
 DIRECTION dim           40  value   -6.2772882468033024E-004
 DIRECTION dim           41  value    1.0047882154856693E-007
 DIRECTION dim           42  value    2.7776047608671223E-003
 DIRECTION dim           43  value    2.0049198059200021E-002
 DIRECTION dim           44  value   -5.3177829316896066E-003
 DIRECTION dim           45  value    1.7695984547186482E-002
 DIRECTION dim           46  value    3.7420182764291217E-002
 DIRECTION dim           47  value  -0.23533260363331454     
 DIRECTION dim           48  value   -3.5596341613054099E-003
  Cycle:      1 Energy:       -59.541209  Gnorm:     30.883041  CPU:    0.030
  ** Hessian calculated **
 ALPHA BEFORE:    1.0000000000000000     
 XC BEFORE:    8.1414040304773850E-004
  ** Opt : line minimisation
left   ...       0.00000000     -59.54120879
centre ...       0.25000000     -74.61792994
right  ...       0.50000000     -89.15765489

left   ...       0.00000000     -59.54120879
centre ...       0.25000000     -74.61792994
right  ...       0.50000000     -89.15765489
new    ...       1.50000000    -127.59830330

__s__    ...       1.00000000

left   ...       0.25000000     -74.61792994
centre ...       0.50000000     -89.15765489
right  ...       1.50000000    -127.59830330
new    ...       2.21843488    -172.21320204

__s__    ...       0.71843488

left   ...       0.50000000     -89.15765489
centre ...       1.50000000    -127.59830330
right  ...       2.21843488    -172.21320204
new    ...       3.21843488 -131343.35480664

__s__    ...       1.00000000

left   ...       1.50000000    -127.59830330
centre ...       2.21843488    -172.21320204
right  ...       3.21843488 -131343.35480664
new    ...       4.21843488   -9025.90323096

__s__    ...       1.00000000

left   ...       2.21843488    -172.21320204
centre ...       3.21843488 -131343.35480664
right  ...       4.21843488   -9025.90323096
new    ...       3.23589857 -167084.90325364

__s__    ...      -0.98253631

left   ...       3.21843488 -131343.35480664
centre ...       3.23589857 -167084.90325364
right  ...       4.21843488   -9025.90323096
new    ...       3.69072978*****************

__s__    ...       0.45483121

 ALPHA AFTER:    3.6907297776037917     
 XC AFTER:    4.5688751974502249E-002
 SANITY CHECK:    3.6907297776037926     
 DIRECTION dim            1  value    1.2158736693150525E-002
 DIRECTION dim            2  value   -2.1379179895116691E-002
 DIRECTION dim            3  value    4.1815857668174869E-003
 DIRECTION dim            4  value  -0.12102854854459773     
 DIRECTION dim            5  value    5.1683349847941708E-003
 DIRECTION dim            6  value   -7.1947848403156808E-002
 DIRECTION dim            7  value  -0.10085538839713475     
 DIRECTION dim            8  value    8.0281336372156707E-003
 DIRECTION dim            9  value   -7.3499168516940827E-002
 DIRECTION dim           10  value   -7.9634980805473529E-003
 DIRECTION dim           11  value    1.1907609408355477E-002
 DIRECTION dim           12  value   -1.6271460901890168E-002
 DIRECTION dim           13  value  -0.11006947894240499     
 DIRECTION dim           14  value    8.6326283757610801E-003
 DIRECTION dim           15  value  -0.13259006155603889     
 DIRECTION dim           16  value    6.3311229057074680E-003
 DIRECTION dim           17  value    2.1639720475006369E-002
 DIRECTION dim           18  value   -2.7976810085884814E-002
 DIRECTION dim           19  value    5.5298279417053155E-002
 DIRECTION dim           20  value    1.7017680601666512E-002
 DIRECTION dim           21  value   -3.3585382246499811E-002
 DIRECTION dim           22  value   -5.9071404319536881E-003
 DIRECTION dim           23  value   -5.8767662005787362E-002
 DIRECTION dim           24  value   -1.9827612920151082E-002
 DIRECTION dim           25  value   -4.9839700439878461E-002
 DIRECTION dim           26  value   -2.0755829181862272E-002
 DIRECTION dim           27  value   -3.4324986859164499E-003
 DIRECTION dim           28  value   -7.6861370545942501E-003
 DIRECTION dim           29  value   -2.4705961272225609E-002
 DIRECTION dim           30  value    1.9851497230267270E-002
 DIRECTION dim           31  value    4.3026710059967298E-002
 DIRECTION dim           32  value   -2.7693086407655863E-002
 DIRECTION dim           33  value   -2.7030814394962320E-002
 DIRECTION dim           34  value   -2.0399203446563666E-003
 DIRECTION dim           35  value   -7.7917627918556807E-003
 DIRECTION dim           36  value   -2.2024463426706661E-002
 DIRECTION dim           37  value    1.6717946993151937E-002
 DIRECTION dim           38  value   -2.9512218038756620E-004
 DIRECTION dim           39  value   -5.4731435022712452E-002
 DIRECTION dim           40  value   -2.1327701784420620E-002
 DIRECTION dim           41  value   -2.8120882230121529E-003
 DIRECTION dim           42  value   -3.5959785490290858E-002
 DIRECTION dim           43  value   -4.9801661218295226E-002
 DIRECTION dim           44  value  -0.11097247416739552     
 DIRECTION dim           45  value    8.0843610484126707E-002
 DIRECTION dim           46  value    1.1905163828332049E-002
 DIRECTION dim           47  value  -0.14145765711406766     
 DIRECTION dim           48  value    2.6146549501929156E-002
  Cycle:      2 Energy:-166598376.519750  Gnorm:**************  CPU:    0.052
  ** Hessian calculated **
 ALPHA BEFORE:    1.0000000000000000     
 XC BEFORE:    4.5688751974502249E-002
  ** Opt : line minimisation
left   ...       0.00000000*****************
centre ...       0.25000000*****************
right  ...      -0.25000000*****************

left   ...      -0.25000000*****************
centre ...       0.00000000*****************
right  ...       0.25000000*****************
new    ...      -0.75000000*****************

__s__    ...      -0.50000000

left   ...      -0.75000000*****************
centre ...      -0.25000000*****************
right  ...       0.00000000*****************
new    ...      -1.48694841*****************

__s__    ...      -0.73694841

left   ...      -1.48694841*****************
centre ...      -0.75000000*****************
right  ...      -0.25000000*****************
new    ...      -2.22389681*****************

__s__    ...      -0.73694841

left   ...      -2.22389681*****************
centre ...      -1.48694841*****************
right  ...      -0.75000000*****************
new    ...      -2.96084522*****************

__s__    ...      -0.73694841

left   ...      -2.96084522*****************
centre ...      -2.22389681*****************
right  ...      -1.48694841*****************
new    ...      -3.69779362*****************

__s__    ...      -0.73694841

left   ...      -3.69779362*****************
centre ...      -2.96084522*****************
right  ...      -2.22389681*****************
new    ...      -4.43474203*****************

__s__    ...      -0.73694841

 ALPHA AFTER:    4.4347420263559094     
 XC AFTER:    4.6618992942925673E-002
 SANITY CHECK:    4.4347420263558801     
 DIRECTION dim            1  value    2.0976213788647860E-004
 DIRECTION dim            2  value   -2.7260599140623845E-004
 DIRECTION dim            3  value    4.5215873499980584E-004
 DIRECTION dim            4  value   -1.5310517996806414E-003
 DIRECTION dim            5  value    5.4948843513770134E-005
 DIRECTION dim            6  value   -2.6939417781116696E-005
 DIRECTION dim            7  value    1.8792322211088691E-005
 DIRECTION dim            8  value    6.7256195900671344E-005
 DIRECTION dim            9  value   -2.4308232628934587E-005
 DIRECTION dim           10  value    1.2903740789973084E-003
 DIRECTION dim           11  value    2.3717326474930523E-003
 DIRECTION dim           12  value   -1.0414115968916868E-002
 DIRECTION dim           13  value   -1.8792321245692891E-005
 DIRECTION dim           14  value   -6.7256195062268930E-005
 DIRECTION dim           15  value    2.4308233106784731E-005
 DIRECTION dim           16  value   -1.0112422956758266E-003
 DIRECTION dim           17  value    1.9994139561103730E-003
 DIRECTION dim           18  value    4.9236125155528135E-004
 DIRECTION dim           19  value    4.3052379613649147E-003
 DIRECTION dim           20  value   -8.7967326483821731E-004
 DIRECTION dim           21  value    3.6180882747096385E-003
 DIRECTION dim           22  value    8.8067118613365533E-004
 DIRECTION dim           23  value   -2.3234526548834809E-003
 DIRECTION dim           24  value   0.54277883924968706     
 DIRECTION dim           25  value   -1.7226591394290836E-004
 DIRECTION dim           26  value   -1.9053664339813874E-004
 DIRECTION dim           27  value   -2.5679999734217872E-004
 DIRECTION dim           28  value    4.1825676613745967E-004
 DIRECTION dim           29  value   -6.7297381477596186E-004
 DIRECTION dim           30  value    3.4808934482564497E-004
 DIRECTION dim           31  value   -5.1731381873520576E-004
 DIRECTION dim           32  value   -8.2813875262336900E-005
 DIRECTION dim           33  value   -5.6932299511884760E-004
 DIRECTION dim           34  value   -4.2044259489653989E-004
 DIRECTION dim           35  value    3.5729976801149950E-004
 DIRECTION dim           36  value   -3.2421750924985435E-005
 DIRECTION dim           37  value   -1.5382173003494052E-003
 DIRECTION dim           38  value   -1.2217902926827027E-004
 DIRECTION dim           39  value    4.3137660421083834E-004
 DIRECTION dim           40  value    4.3563833337600754E-004
 DIRECTION dim           41  value    1.9917134850213228E-004
 DIRECTION dim           42  value   -2.5572598243082419E-004
 DIRECTION dim           43  value   -1.1308001607299735E-002
 DIRECTION dim           44  value    4.3312406079823035E-003
 DIRECTION dim           45  value   -2.6552547902336655E-003
 DIRECTION dim           46  value    1.3402244927266541E-003
 DIRECTION dim           47  value   -3.1170524997388826E-003
 DIRECTION dim           48  value    1.8344885102821165E-003
  Cycle:      3 Energy:-267335786.073149  Gnorm:**************  CPU:    0.075
  ** Hessian calculated **
 ALPHA BEFORE:    1.0000000000000000     
 XC BEFORE:    4.6618992942925673E-002
  ** Opt : line minimisation
left   ...       0.00000000*****************
centre ...       0.25000000*****************
right  ...      -0.25000000*****************

left   ...      -0.25000000*****************
centre ...       0.00000000*****************
right  ...       0.25000000*****************
new    ...      -0.74186093*****************

__s__    ...      -0.49186093

left   ...      -0.74186093*****************
centre ...      -0.25000000*****************
right  ...       0.00000000*****************
new    ...      -1.23372186*****************

__s__    ...      -0.49186093

left   ...      -1.23372186*****************
centre ...      -0.74186093*****************
right  ...      -0.25000000*****************
new    ...      -1.72558279*****************

__s__    ...      -0.49186093

left   ...      -1.72558279*****************
centre ...      -1.23372186*****************
right  ...      -0.74186093*****************
new    ...      -2.21744372*****************

__s__    ...      -0.49186093

left   ...      -2.21744372*****************
centre ...      -1.72558279*****************
right  ...      -1.23372186*****************
new    ...      -2.70930465*****************

__s__    ...      -0.49186093

left   ...      -2.70930465*****************
centre ...      -2.21744372*****************
right  ...      -1.72558279*****************
new    ...      -3.20116558*****************

__s__    ...      -0.49186093

 ALPHA AFTER:    3.2011655792382774     
 XC AFTER:    4.9008207240938129E-002
 SANITY CHECK:    3.2011655792382738     
 DIRECTION dim            1  value    7.4635761221104207E-004
 DIRECTION dim            2  value   -4.3586120791149719E-003
 DIRECTION dim            3  value    6.2854269157109569E-004
 DIRECTION dim            4  value   -3.1315788749621649E-004
 DIRECTION dim            5  value    5.8436038866261514E-004
 DIRECTION dim            6  value    8.0053517794476852E-005
 DIRECTION dim            7  value    9.9953908774738631E-006
 DIRECTION dim            8  value    1.2468173112123671E-004
 DIRECTION dim            9  value   -3.1044414565900132E-005
 DIRECTION dim           10  value   -1.0060835142526952E-003
 DIRECTION dim           11  value   -2.3614232991637923E-003
 DIRECTION dim           12  value   -9.4348555433233829E-005
 DIRECTION dim           13  value   -9.9953926109549027E-006
 DIRECTION dim           14  value   -1.2468173158796631E-004
 DIRECTION dim           15  value    3.1044414545852272E-005
 DIRECTION dim           16  value   -1.9335798512172490E-003
 DIRECTION dim           17  value    3.7476119158033065E-003
 DIRECTION dim           18  value   -3.8788974097057290E-002
 DIRECTION dim           19  value   0.81323800226060561     
 DIRECTION dim           20  value   -1.5815126251309849E-003
 DIRECTION dim           21  value   -8.4961325857267904E-004
 DIRECTION dim           22  value    3.1245131964829589E-004
 DIRECTION dim           23  value   -5.8462465274652811E-004
 DIRECTION dim           24  value   -7.9923560147072362E-005
 DIRECTION dim           25  value   -1.0235360783247523E-003
 DIRECTION dim           26  value    1.5357822723789189E-004
 DIRECTION dim           27  value    1.9798595965829740E-004
 DIRECTION dim           28  value    9.2611068296595339E-004
 DIRECTION dim           29  value   -1.0994421946468745E-003
 DIRECTION dim           30  value    8.3572893524280299E-003
 DIRECTION dim           31  value   -6.7471791260737934E-004
 DIRECTION dim           32  value   -4.2029107281913673E-004
 DIRECTION dim           33  value   -9.4253870906202547E-003
 DIRECTION dim           34  value   -8.2111747059991126E-004
 DIRECTION dim           35  value    5.9538503092202300E-004
 DIRECTION dim           36  value    4.3467383270677745E-004
 DIRECTION dim           37  value    4.7607523582153758E-003
 DIRECTION dim           38  value    2.1974226741742408E-003
 DIRECTION dim           39  value    4.7809193593530114E-004
 DIRECTION dim           40  value    9.0542810141060518E-004
 DIRECTION dim           41  value    3.3587668854373817E-004
 DIRECTION dim           42  value   -1.3471178948990314E-004
 DIRECTION dim           43  value   -2.0414883965579795E-002
 DIRECTION dim           44  value    6.3632968892671678E-003
 DIRECTION dim           45  value   -3.6810881835223803E-003
 DIRECTION dim           46  value    3.2329742295490798E-003
 DIRECTION dim           47  value   -4.6111589561259802E-003
 DIRECTION dim           48  value    4.5538997520494220E-003
  Cycle:      4 Energy:-464714120.244826  Gnorm:**************  CPU:    0.099
  ** Hessian calculated **
 ALPHA BEFORE:    1.0000000000000000     
 XC BEFORE:    4.9008207240938129E-002
  ** Opt : line minimisation
left   ...       0.00000000*****************
centre ...       0.25000000*****************
right  ...      -0.25000000*****************

left   ...      -0.25000000*****************
centre ...       0.00000000*****************
right  ...       0.25000000*****************
new    ...      -0.58844967*****************

__s__    ...      -0.33844967

left   ...      -0.58844967*****************
centre ...      -0.25000000*****************
right  ...       0.00000000*****************
new    ...      -0.27904059*****************

__s__    ...       0.30940908

left   ...      -0.27904059*****************
centre ...      -0.25000000*****************
right  ...       0.00000000*****************
new    ...      -0.24676131*****************

__s__    ...       0.03227928

left   ...      -0.27904059*****************
centre ...      -0.25000000*****************
right  ...      -0.24676131*****************
new    ...      -0.25425281*****************

__s__    ...      -0.00749149

left   ...      -0.27904059*****************
centre ...      -0.25425281*****************
right  ...      -0.25000000*****************
new    ...      -0.25423486*****************

__s__    ...       0.00001795

left   ...      -0.25425281*****************
centre ...      -0.25423486*****************
right  ...      -0.25000000*****************
new    ...      -0.25421822*****************

__s__    ...       0.00001664

 ALPHA AFTER:   0.25421822188786070     
 XC AFTER:    5.5508357569383222E-002
 SANITY CHECK:   0.25421822188786047     
 DIRECTION dim            1  value    2.5569175490938685E-002
 DIRECTION dim            2  value    3.7772525520671736E-002
 DIRECTION dim            3  value    1.2096846399491146E-002
 DIRECTION dim            4  value   -6.1238021686693617E-003
 DIRECTION dim            5  value    9.4153699156009560E-003
 DIRECTION dim            6  value    1.4266698640481889E-003
 DIRECTION dim            7  value   -3.1307683503957662E-004
 DIRECTION dim            8  value    5.0569487702781229E-003
 DIRECTION dim            9  value   -4.6700588689450634E-004
 DIRECTION dim           10  value   -2.1603535911738849E-003
 DIRECTION dim           11  value   -5.1138965440482999E-002
 DIRECTION dim           12  value   -5.1464026009196747E-003
 DIRECTION dim           13  value    3.1307679349720162E-004
 DIRECTION dim           14  value   -5.0569488125087030E-003
 DIRECTION dim           15  value    4.6700588348222736E-004
 DIRECTION dim           16  value    4.1782114818980746E-003
 DIRECTION dim           17  value   -4.7237282592594920E-004
 DIRECTION dim           18  value   -1.5401850272065462E-003
 DIRECTION dim           19  value   -8.7281611350067245E-003
 DIRECTION dim           20  value   -3.7295794650074971E-003
 DIRECTION dim           21  value   -2.0365710868328400E-003
 DIRECTION dim           22  value    6.1044467908914048E-003
 DIRECTION dim           23  value   -9.4213766126960957E-003
 DIRECTION dim           24  value   -1.4237443578754851E-003
 DIRECTION dim           25  value    1.1780998427525252E-002
 DIRECTION dim           26  value   -1.0416578513076345E-002
 DIRECTION dim           27  value   -5.7167655975727096E-003
 DIRECTION dim           28  value   -4.4097764988832826E-003
 DIRECTION dim           29  value    3.5046645294702391E-003
 DIRECTION dim           30  value    1.7443004987000555E-003
 DIRECTION dim           31  value   -1.1672936629889406E-002
 DIRECTION dim           32  value    7.2756445973417974E-002
 DIRECTION dim           33  value   -7.3771934619356293E-004
 DIRECTION dim           34  value   -2.3016330482878322E-002
 DIRECTION dim           35  value    1.3156617417802574E-002
 DIRECTION dim           36  value    9.1392808685929125E-003
 DIRECTION dim           37  value    1.2826843645251966E-002
 DIRECTION dim           38  value    3.0775131884525582E-002
 DIRECTION dim           39  value    2.5013843765959526E-002
 DIRECTION dim           40  value    2.6037553618934780E-002
 DIRECTION dim           41  value    5.5911455686933603E-003
 DIRECTION dim           42  value   -9.1339996281555747E-003
 DIRECTION dim           43  value   -1.1818596223375033     
 DIRECTION dim           44  value   0.12745416843337498     
 DIRECTION dim           45  value   -6.3827227864808489E-002
 DIRECTION dim           46  value   0.12805599734809531     
 DIRECTION dim           47  value   -9.6223218194404589E-002
 DIRECTION dim           48  value   0.18981799337364907     
  Cycle:      5 Energy:*****************  Gnorm:**************  CPU:    0.136
  ** Hessian calculated **
 ALPHA BEFORE:    1.0000000000000000     
 XC BEFORE:    5.5508357569383222E-002
  ** Opt : line minimisation
left   ...       0.00000000*****************
centre ...       0.25000000*****************
right  ...      -0.25000000*****************

left   ...      -0.25000000*****************
centre ...       0.00000000*****************
right  ...       0.25000000*****************
new    ...      -0.53006538*****************

__s__    ...      -0.28006538

left   ...      -0.53006538*****************
centre ...      -0.25000000*****************
right  ...       0.00000000*****************
new    ...      -0.34139961*****************

__s__    ...       0.18866578

left   ...      -0.53006538*****************
centre ...      -0.34139961*****************
right  ...      -0.25000000*****************
new    ...      -0.37067368*****************

__s__    ...      -0.02927407

left   ...      -0.53006538*****************
centre ...      -0.37067368*****************
right  ...      -0.34139961*****************
new    ...      -0.37374598*****************

__s__    ...      -0.00307230

left   ...      -0.37374598*****************
centre ...      -0.37067368*****************
right  ...      -0.34139961*****************
new    ...      -0.37150669*****************

__s__    ...       0.00223929

left   ...      -0.37374598*****************
centre ...      -0.37150669*****************
right  ...      -0.37067368*****************
new    ...      -0.37152394*****************

__s__    ...      -0.00001726

 ALPHA AFTER:   0.37152394208554751     
 XC AFTER:    8.0289802901824775E-002
 SANITY CHECK:   0.37152394208554740     
 DIRECTION dim            1  value    6.6702148974117415E-002
 DIRECTION dim            2  value    1.4282379270401659     
 DIRECTION dim            3  value   -5.1279627756198164E-003
 DIRECTION dim            4  value   -2.4011935821175188E-002
 DIRECTION dim            5  value    1.7690273426789735E-002
 DIRECTION dim            6  value    3.6413982026591144E-003
 DIRECTION dim            7  value    4.6778594047665384E-003
 DIRECTION dim            8  value   -5.7523851217629006E-003
 DIRECTION dim            9  value   -6.0032955080688039E-004
 DIRECTION dim           10  value    7.4889455059019769E-002
 DIRECTION dim           11  value   0.28889586273557538     
 DIRECTION dim           12  value   -4.7801059614798070E-003
 DIRECTION dim           13  value   -4.6778590908271543E-003
 DIRECTION dim           14  value    5.7523852994401841E-003
 DIRECTION dim           15  value    6.0032952498191973E-004
 DIRECTION dim           16  value    1.7053115784733678E-002
 DIRECTION dim           17  value   -2.5206174440166526E-002
 DIRECTION dim           18  value   -4.2286327034301192E-003
 DIRECTION dim           19  value   0.16745626733474539     
 DIRECTION dim           20  value   0.19819519055748958     
 DIRECTION dim           21  value   -5.0248990071950286E-002
 DIRECTION dim           22  value    2.3551971892884858E-002
 DIRECTION dim           23  value   -1.7763716261813528E-002
 DIRECTION dim           24  value   -3.5988084803665211E-003
 DIRECTION dim           25  value    1.1278652776041627E-002
 DIRECTION dim           26  value    1.8425339945508743E-002
 DIRECTION dim           27  value    2.2643702098999973E-002
 DIRECTION dim           28  value   -1.4654806638253777E-002
 DIRECTION dim           29  value    9.2617322239474430E-004
 DIRECTION dim           30  value    3.2692365188771769E-003
 DIRECTION dim           31  value   -2.4027843721380497E-002
 DIRECTION dim           32  value   -3.2921248936745237E-002
 DIRECTION dim           33  value    6.3316863328525307E-003
 DIRECTION dim           34  value   -5.9374219231431866E-002
 DIRECTION dim           35  value    5.2624085414410840E-002
 DIRECTION dim           36  value    1.3952892699512203E-002
 DIRECTION dim           37  value  -0.13161048171123021     
 DIRECTION dim           38  value  -0.22633086671062846     
 DIRECTION dim           39  value    4.1309903142406332E-002
 DIRECTION dim           40  value    4.8212463797072717E-002
 DIRECTION dim           41  value   -3.3513607950692123E-002
 DIRECTION dim           42  value   -8.4580667163877705E-003
 DIRECTION dim           43  value   0.33785302102197784     
 DIRECTION dim           44  value   0.83891433684256844     
 DIRECTION dim           45  value  -0.13985779502691859     
 DIRECTION dim           46  value  -0.45922087710331239     
 DIRECTION dim           47  value    5.7886445244162796E-002
 DIRECTION dim           48  value   0.13636319234861372     
  Cycle:      6 Energy:*****************  Gnorm:**************  CPU:    0.182
  ** Hessian calculated **
 ALPHA BEFORE:    1.0000000000000000     
 XC BEFORE:    8.0289802901824775E-002


  **** Too many reciprocal lattice vectors needed ****
  **** Probably due to unphysical cell dimensions ****

  Current cell parameters : 

    a =   2.3736    alpha =  91.9759
    b =   6.0582    beta  = 166.6935
    c =  13.4582    gamma =  77.8037

 Program terminated by processor     0 in               kindex

