********************************************************************************
*                       GENERAL UTILITY LATTICE PROGRAM                        *
*                                 Julian Gale                                  *
*                       Curtin Institute for Computation                       *
*                           Department of Chemistry                            *
*                    Curtin University, Western Australia                      *
********************************************************************************
* Version = 5.1.1 * Last modified =  25th August 2019                          *
********************************************************************************
*  optimise     - perform optimisation run                                     *
*  conp         - constant pressure calculation                                *
*  nosymmetry   - turn off symmetry after initial structure generation         *
*  full         - generate full unit cell when symmetry is removed             *
*  conjugate    - use conjugate gradients minimiser                            *
********************************************************************************
* ASE calculation                                                              *
********************************************************************************


  Job Started  at 11:51.17  4th February   2020                               

  Number of CPUs =     1


  Total number of configurations input =      1

********************************************************************************
*  Input for Configuration =   1                                               *
********************************************************************************

  Formula = Sr3Ti3O9                                                    

  Number of irreducible atoms/shells =      15


  Total number atoms/shells =      15

  Dimensionality = 3               :  Bulk   



  Cartesian lattice vectors (Angstroms) :

       12.000000    0.000000    0.000000
        0.000000    4.000000    0.000000
        0.000000    0.000000    4.000000

  Cell parameters (Angstroms/Degrees):

  a =      12.0000    alpha =  90.0000
  b =       4.0000    beta  =  90.0000
  c =       4.0000    gamma =  90.0000

  Initial cell volume =         192.000000 Angs**3

  Temperature of configuration =  0.000     K 

  Pressure of configuration =         0.000 GPa 

  Fractional coordinates of asymmetric unit :

--------------------------------------------------------------------------------
   No.  Atomic       x           y          z         Charge      Occupancy
        Label      (Frac)      (Frac)     (Frac)        (e)         (Frac)  
--------------------------------------------------------------------------------
      1 Sr    c    0.999850    0.000360    0.999990     2.00000    1.000000    
      2 Ti    c    0.166710 *  0.500030 *  0.500050 *   4.00000    1.000000    
      3 O     c    0.000050 *  0.500680 *  0.500190 *  -2.00000    1.000000    
      4 O     c    0.166570 *  0.999870 *  0.499700 *  -2.00000    1.000000    
      5 O     c    0.166600 *  0.499850 *  0.999910 *  -2.00000    1.000000    
      6 Sr    c    0.333370 *  0.000290 *  0.999980 *   2.00000    1.000000    
      7 Ti    c    0.500060 *  0.500190 *  0.500580 *   4.00000    1.000000    
      8 O     c    0.333440 *  0.499320 *  0.500160 *  -2.00000    1.000000    
      9 O     c    0.500070 *  0.000580 *  0.500650 *  -2.00000    1.000000    
     10 O     c    0.500040 *  0.499980 *  0.999500 *  -2.00000    1.000000    
     11 Sr    c    0.666980 *  0.000650 *  0.999700 *   2.00000    1.000000    
     12 Ti    c    0.833180 *  0.500010 *  0.500730 *   4.00000    1.000000    
     13 O     c    0.666770 *  0.499940 *  0.500100 *  -2.00000    1.000000    
     14 O     c    0.833490 *  0.000170 *  0.499850 *  -2.00000    1.000000    
     15 O     c    0.833340 *  0.499170 *  0.000420 *  -2.00000    1.000000    
--------------------------------------------------------------------------------



********************************************************************************
*  General input information                                                   *
********************************************************************************

  Species output for all configurations : 

--------------------------------------------------------------------------------
  Species    Type    Atomic    Atomic    Charge       Radii (Angs)     Library
                     Number     Mass       (e)     Cova   Ionic  VDW   Symbol
--------------------------------------------------------------------------------
    Sr       Core       38      87.62   2.000000   1.120  0.000  1.670          
    Ti       Core       22      47.88   4.000000   1.470  0.000  2.190          
    O        Core        8      16.00  -2.000000   0.730  0.000  1.360          
--------------------------------------------------------------------------------


  Lattice summation method               =    Ewald          (3-D)
                                         =    Parry          (2-D)
                                         =    Saunders et al (1-D)
  Accuracy factor for lattice sums       =   12.000


  Time limit = Infinity

  Maximum range for interatomic potentials =    100000.000000 Angstroms

  General interatomic potentials :

--------------------------------------------------------------------------------
Atom  Types   Potential      Parameter       Value         Units   Cutoffs(Ang)
  1     2                                                            Min /  Max 
--------------------------------------------------------------------------------
O    c Sr   c Buckingham    Buckingham A     1952.3900    eV        0.000 10.000
                            Buckingham rho  0.33685000    Ang       
                            Buckingham C     19.220000    eV*Ang^6  
--------------------------------------------------------------------------------
O    c Ti   c Buckingham    Buckingham A     4590.7279    eV        0.000 10.000
                            Buckingham rho  0.26100000    Ang       
                            Buckingham C     0.0000000    eV*Ang^6  
--------------------------------------------------------------------------------
O    c O    c Buckingham    Buckingham A     1388.7700    eV        0.000 10.000
                            Buckingham rho  0.36262000    Ang       
                            Buckingham C     175.00000    eV*Ang^6  
--------------------------------------------------------------------------------
 Calling ------OPTIONS------

********************************************************************************
*  Output for configuration   1                                                *
********************************************************************************


  Components of energy : 

--------------------------------------------------------------------------------
  Interatomic potentials     =          59.32167851 eV    
  Monopole - monopole (real) =        -234.57426617 eV    
  Monopole - monopole (recip)=        -300.12329799 eV    
  Monopole - monopole (total)=        -534.69756416 eV    
--------------------------------------------------------------------------------
  Total lattice energy       =        -475.37588565 eV    
--------------------------------------------------------------------------------
  Total lattice energy       =          -45866.5062 kJ/(mole unit cells)
--------------------------------------------------------------------------------


  Number of variables =       48

  Maximum number of calculations  =          1000
  Maximum Hessian update interval =            10
  Maximum step size               =   1.000000000
  Maximum parameter tolerance     =   0.000010000
  Maximum function  tolerance     =   0.000010000
  Maximum gradient  tolerance     =   0.001000000
  Maximum gradient  component     =   0.010000000

  Cell parameters to be optimised using strains

  Conjugate gradient optimiser to be used

  Lower half triangular hessian to be used

  Start of bulk optimisation :

  Cycle:      0 Energy:      -475.375886  Gnorm:      0.419631  CPU:    0.011
 Line minimisation2
 ALPHA BEFORE:    1.0000000000000000     
  ** Opt : line minimisation
left   ...       0.00000000    -475.37588565
centre ...       0.25000000    -475.45937155
right  ...       0.50000000    -475.50636435

left   ...       0.00000000    -475.37588565
centre ...       0.25000000    -475.45937155
right  ...       0.50000000    -475.50636435
new    ...       0.69692938    -475.51707715

__s__    ...       0.19692938

 ALPHA AFTER:   0.69692938194025855     
  Cycle:      1 Energy:      -475.517077  Gnorm:      0.732287  CPU:    0.020
 Perform trimming
 Line minimisation2
 ALPHA BEFORE:   0.69692938194025855     
  ** Opt : line minimisation
left   ...       0.00000000    -475.51707715
centre ...       0.17423235    -475.56576597
right  ...       0.34846469    -475.52905485

left   ...       0.00000000    -475.51707715
centre ...       0.17423235    -475.56576597
right  ...       0.34846469    -475.52905485
new    ...       0.18645076    -475.56599689

__s__    ...      -0.16201393

left   ...       0.17423235    -475.56576597
centre ...       0.18645076    -475.56599689
right  ...       0.34846469    -475.52905485
new    ...       0.18700951    -475.56599740

__s__    ...       0.00055875

 ALPHA AFTER:   0.18700951380719669     
  Cycle:      2 Energy:      -475.565997  Gnorm:      0.076074  CPU:    0.026
 Line minimisation2
 ALPHA BEFORE:   0.18700951380719669     
  ** Opt : line minimisation
left   ...       0.00000000    -475.56599740
centre ...       0.04675238    -475.56652541
right  ...       0.09350476    -475.56686297

left   ...       0.00000000    -475.56599740
centre ...       0.04675238    -475.56652541
right  ...       0.09350476    -475.56686297
new    ...       0.15299148    -475.56701753

__s__    ...       0.05948673

 ALPHA AFTER:   0.15299148406450117     
  Cycle:      3 Energy:      -475.567018  Gnorm:      0.018128  CPU:    0.031
 Line minimisation2
 ALPHA BEFORE:   0.15299148406450117     
  ** Opt : line minimisation
left   ...       0.00000000    -475.56701753
centre ...       0.03824787    -475.56704138
right  ...       0.07649574    -475.56705494

left   ...       0.00000000    -475.56701753
centre ...       0.03824787    -475.56704138
right  ...       0.07649574    -475.56705494
new    ...       0.10773968    -475.56705838

__s__    ...       0.03124394

 ALPHA AFTER:   0.10773967743927450     
  Cycle:      4 Energy:      -475.567058  Gnorm:      0.014066  CPU:    0.035
 Line minimisation2
 ALPHA BEFORE:   0.10773967743927450     
  ** Opt : line minimisation
left   ...       0.00000000    -475.56705838
centre ...       0.02693492    -475.56707012
right  ...       0.05386984    -475.56708078

left   ...       0.00000000    -475.56705838
centre ...       0.02693492    -475.56707012
right  ...       0.05386984    -475.56708078
new    ...       0.30651421    -475.56712828

__s__    ...       0.25264437

 ALPHA AFTER:   0.30651420503453713     
  Cycle:      5 Energy:      -475.567128  Gnorm:      0.012001  CPU:    0.038
 Line minimisation2
 ALPHA BEFORE:   0.30651420503453713     
  ** Opt : line minimisation
left   ...       0.00000000    -475.56712828
centre ...       0.07662855    -475.56715148
right  ...       0.15325710    -475.56717023

left   ...       0.00000000    -475.56712828
centre ...       0.07662855    -475.56715148
right  ...       0.15325710    -475.56717023
new    ...       0.43702970    -475.56720084

__s__    ...       0.28377260

 ALPHA AFTER:   0.43702969860197682     
  Cycle:      6 Energy:      -475.567201  Gnorm:      0.007998  CPU:    0.041
 Line minimisation2
 ALPHA BEFORE:   0.43702969860197682     
  ** Opt : line minimisation
left   ...       0.00000000    -475.56720084
centre ...       0.10925742    -475.56721540
right  ...       0.21851485    -475.56722685

left   ...       0.00000000    -475.56720084
centre ...       0.10925742    -475.56721540
right  ...       0.21851485    -475.56722685
new    ...       0.56524078    -475.56724254

__s__    ...       0.34672594

 ALPHA AFTER:   0.56524078435229430     
  Cycle:      7 Energy:      -475.567243  Gnorm:      0.009517  CPU:    0.044
 Perform trimming
 Line minimisation2
 ALPHA BEFORE:   0.56524078435229430     
  ** Opt : line minimisation
left   ...       0.00000000    -475.56724254
centre ...       0.14131020    -475.56725098
right  ...       0.28262039    -475.56722268

left   ...       0.00000000    -475.56724254
centre ...       0.14131020    -475.56725098
right  ...       0.28262039    -475.56722268
new    ...       0.10310072    -475.56725232

__s__    ...      -0.17951967

 ALPHA AFTER:   0.10310071881638883     
  Cycle:      8 Energy:      -475.567252  Gnorm:      0.005461  CPU:    0.047
 Line minimisation2
 ALPHA BEFORE:   0.10310071881638883     
  ** Opt : line minimisation
left   ...       0.00000000    -475.56725232
centre ...       0.02577518    -475.56725404
right  ...       0.05155036    -475.56725564

left   ...       0.00000000    -475.56725232
centre ...       0.02577518    -475.56725404
right  ...       0.05155036    -475.56725564
new    ...       0.39270801    -475.56726583

__s__    ...       0.34115765

 ALPHA AFTER:   0.39270800869612055     
  Cycle:      9 Energy:      -475.567266  Gnorm:      0.006219  CPU:    0.050
 Line minimisation2
 ALPHA BEFORE:   0.39270800869612055     
  ** Opt : line minimisation
left   ...       0.00000000    -475.56726583
centre ...       0.09817700    -475.56727190
right  ...       0.19635400    -475.56727260

left   ...       0.00000000    -475.56726583
centre ...       0.09817700    -475.56727190
right  ...       0.19635400    -475.56727260
new    ...       0.16015781    -475.56727297

__s__    ...      -0.03619620

 ALPHA AFTER:   0.16015780699849239     
  Cycle:     10 Energy:      -475.567273  Gnorm:      0.004675  CPU:    0.052
 Line minimisation2
 ALPHA BEFORE:   0.16015780699849239     
  ** Opt : line minimisation
left   ...       0.00000000    -475.56727297
centre ...       0.04003945    -475.56727469
right  ...       0.08007890    -475.56727581

left   ...       0.00000000    -475.56727297
centre ...       0.04003945    -475.56727469
right  ...       0.08007890    -475.56727581
new    ...       0.13607435    -475.56727639

__s__    ...       0.05599545

 ALPHA AFTER:   0.13607435076644189     
  Cycle:     11 Energy:      -475.567276  Gnorm:      0.004116  CPU:    0.055
 Line minimisation2
 ALPHA BEFORE:   0.13607435076644189     
  ** Opt : line minimisation
left   ...       0.00000000    -475.56727639
centre ...       0.03401859    -475.56727769
right  ...       0.06803718    -475.56727892

left   ...       0.00000000    -475.56727639
centre ...       0.03401859    -475.56727769
right  ...       0.06803718    -475.56727892
new    ...       0.67642960    -475.56728960

__s__    ...       0.60839242

 ALPHA AFTER:   0.67642959975202521     
  Cycle:     12 Energy:      -475.567290  Gnorm:      0.003206  CPU:    0.057
 Line minimisation2
 ALPHA BEFORE:   0.67642959975202521     
  ** Opt : line minimisation
left   ...       0.00000000    -475.56728960
centre ...       0.16910740    -475.56729308
right  ...       0.33821480    -475.56729553

left   ...       0.00000000    -475.56728960
centre ...       0.16910740    -475.56729308
right  ...       0.33821480    -475.56729553
new    ...       0.65129537    -475.56729731

__s__    ...       0.31308057

 ALPHA AFTER:   0.65129537059757048     
  Cycle:     13 Energy:      -475.567297  Gnorm:      0.003379  CPU:    0.060
 Line minimisation2
 ALPHA BEFORE:   0.65129537059757048     
  ** Opt : line minimisation
left   ...       0.00000000    -475.56729731
centre ...       0.16282384    -475.56729925
right  ...       0.32564769    -475.56729650

left   ...       0.00000000    -475.56729731
centre ...       0.16282384    -475.56729925
right  ...       0.32564769    -475.56729650
new    ...       0.14876685    -475.56729927

__s__    ...      -0.17688084

 ALPHA AFTER:   0.14876684742608956     
  Cycle:     14 Energy:      -475.567299  Gnorm:      0.003168  CPU:    0.063
 Line minimisation2
 ALPHA BEFORE:   0.14876684742608956     
  ** Opt : line minimisation
left   ...       0.00000000    -475.56729927
centre ...       0.03719171    -475.56730005
right  ...       0.07438342    -475.56730068

left   ...       0.00000000    -475.56729927
centre ...       0.03719171    -475.56730005
right  ...       0.07438342    -475.56730068
new    ...       0.20789724    -475.56730167

__s__    ...       0.13351382

 ALPHA AFTER:   0.20789724293590583     
  Cycle:     15 Energy:      -475.567302  Gnorm:      0.002816  CPU:    0.066
 Line minimisation2
 ALPHA BEFORE:   0.20789724293590583     
  ** Opt : line minimisation
left   ...       0.00000000    -475.56730167
centre ...       0.05197431    -475.56730259
right  ...       0.10394862    -475.56730343

left   ...       0.00000000    -475.56730167
centre ...       0.05197431    -475.56730259
right  ...       0.10394862    -475.56730343
new    ...       0.71259823    -475.56730819

__s__    ...       0.60864961

 ALPHA AFTER:   0.71259823379192522     
  Cycle:     16 Energy:      -475.567308  Gnorm:      0.002099  CPU:    0.068
 Line minimisation2
 ALPHA BEFORE:   0.71259823379192522     
  ** Opt : line minimisation
left   ...       0.00000000    -475.56730819
centre ...       0.17814956    -475.56730952
right  ...       0.35629912    -475.56730989

left   ...       0.00000000    -475.56730819
centre ...       0.17814956    -475.56730952
right  ...       0.35629912    -475.56730989
new    ...       0.33579346    -475.56730989

__s__    ...      -0.02050565

 ALPHA AFTER:   0.33579346477895894     
  Cycle:     17 Energy:      -475.567310  Gnorm:      0.001564  CPU:    0.071
 Line minimisation2
 ALPHA BEFORE:   0.33579346477895894     
  ** Opt : line minimisation
left   ...       0.00000000    -475.56730989
centre ...       0.08394837    -475.56731033
right  ...       0.16789673    -475.56731068

left   ...       0.00000000    -475.56730989
centre ...       0.08394837    -475.56731033
right  ...       0.16789673    -475.56731068
new    ...       0.49200812    -475.56731128

__s__    ...       0.32411139

 ALPHA AFTER:   0.49200812088994939     
  Cycle:     18 Energy:      -475.567311  Gnorm:      0.001969  CPU:    0.073
 Perform trimming
 Line minimisation2
 ALPHA BEFORE:   0.49200812088994939     
  ** Opt : line minimisation
left   ...       0.00000000    -475.56731128
centre ...       0.12300203    -475.56731165
right  ...       0.24600406    -475.56731086

left   ...       0.00000000    -475.56731128
centre ...       0.12300203    -475.56731165
right  ...       0.24600406    -475.56731086
new    ...       0.10058268    -475.56731167

__s__    ...      -0.14542138

 ALPHA AFTER:   0.10058268239434515     
  Cycle:     19 Energy:      -475.567312  Gnorm:      0.000850  CPU:    0.076
 Line minimisation2
 ALPHA BEFORE:   0.10058268239434515     
  ** Opt : line minimisation
left   ...       0.00000000    -475.56731167
centre ...       0.02514567    -475.56731171
right  ...       0.05029134    -475.56731174

left   ...       0.00000000    -475.56731167
centre ...       0.02514567    -475.56731171
right  ...       0.05029134    -475.56731174
new    ...       0.32702287    -475.56731194

__s__    ...       0.27673153

 ALPHA AFTER:   0.32702287261089213     
  Cycle:     20 Energy:      -475.567312  Gnorm:      0.001399  CPU:    0.079
 Perform trimming
 Line minimisation2
 ALPHA BEFORE:   0.32702287261089213     
  ** Opt : line minimisation
left   ...       0.00000000    -475.56731194
centre ...       0.08175572    -475.56731209
right  ...       0.16351144    -475.56731220

left   ...       0.00000000    -475.56731194
centre ...       0.08175572    -475.56731209
right  ...       0.16351144    -475.56731220
new    ...       0.33658773    -475.56731230

__s__    ...       0.17307630

 ALPHA AFTER:   0.33658773456959101     
  Cycle:     21 Energy:      -475.567312  Gnorm:      0.000705  CPU:    0.081
 Line minimisation2
 ALPHA BEFORE:   0.33658773456959101     
  ** Opt : line minimisation
left   ...       0.00000000    -475.56731230
centre ...       0.08414693    -475.56731239
right  ...       0.16829387    -475.56731246

left   ...       0.00000000    -475.56731230
centre ...       0.08414693    -475.56731239
right  ...       0.16829387    -475.56731246
new    ...       0.46419260    -475.56731257

__s__    ...       0.29589874

 ALPHA AFTER:   0.46419260469840601     
  Cycle:     22 Energy:      -475.567313  Gnorm:      0.000945  CPU:    0.084
 Perform trimming
 Line minimisation2
 ALPHA BEFORE:   0.46419260469840601     
  ** Opt : line minimisation
left   ...       0.00000000    -475.56731257
centre ...       0.11604815    -475.56731270
right  ...       0.23209630    -475.56731278

left   ...       0.00000000    -475.56731257
centre ...       0.11604815    -475.56731270
right  ...       0.23209630    -475.56731278
new    ...       0.37424617    -475.56731281

__s__    ...       0.14214987

 ALPHA AFTER:   0.37424616744903300     
  Cycle:     23 Energy:      -475.567313  Gnorm:      0.001333  CPU:    0.086
 Perform trimming
 Line minimisation2
 ALPHA BEFORE:   0.37424616744903300     
  ** Opt : line minimisation
left   ...       0.00000000    -475.56731281
centre ...       0.09356154    -475.56731303
right  ...       0.18712308    -475.56731316

left   ...       0.00000000    -475.56731281
centre ...       0.09356154    -475.56731303
right  ...       0.18712308    -475.56731316
new    ...       0.30875566    -475.56731323

__s__    ...       0.12163257

 ALPHA AFTER:   0.30875565845034314     
  Cycle:     24 Energy:      -475.567313  Gnorm:      0.000982  CPU:    0.089
 Line minimisation2
 ALPHA BEFORE:   0.30875565845034314     
  ** Opt : line minimisation
left   ...       0.00000000    -475.56731323
centre ...       0.07718891    -475.56731336
right  ...       0.15437783    -475.56731341

left   ...       0.00000000    -475.56731323
centre ...       0.07718891    -475.56731336
right  ...       0.15437783    -475.56731341
new    ...       0.16788187    -475.56731341

__s__    ...       0.01350404

 ALPHA AFTER:   0.16788186985405162     
  Cycle:     25 Energy:      -475.567313  Gnorm:      0.000839  CPU:    0.092
 Line minimisation2
 ALPHA BEFORE:   0.16788186985405162     
  ** Opt : line minimisation
left   ...       0.00000000    -475.56731341
centre ...       0.04197047    -475.56731348
right  ...       0.08394093    -475.56731354

left   ...       0.00000000    -475.56731341
centre ...       0.04197047    -475.56731348
right  ...       0.08394093    -475.56731354
new    ...       0.47673865    -475.56731380

__s__    ...       0.39279771

 ALPHA AFTER:   0.47673864825433598     
  Cycle:     26 Energy:      -475.567314  Gnorm:      0.000987  CPU:    0.095
 Line minimisation2
 ALPHA BEFORE:   0.47673864825433598     
  ** Opt : line minimisation
left   ...       0.00000000    -475.56731380
centre ...       0.11918466    -475.56731402
right  ...       0.23836932    -475.56731413

left   ...       0.00000000    -475.56731380
centre ...       0.11918466    -475.56731402
right  ...       0.23836932    -475.56731413
new    ...       0.31175684    -475.56731415

__s__    ...       0.07338752

 ALPHA AFTER:   0.31175684334425247     
  Cycle:     27 Energy:      -475.567314  Gnorm:      0.000638  CPU:    0.097
 Line minimisation2
 ALPHA BEFORE:   0.31175684334425247     
  ** Opt : line minimisation
left   ...       0.00000000    -475.56731415
centre ...       0.07793921    -475.56731421
right  ...       0.15587842    -475.56731423

left   ...       0.00000000    -475.56731415
centre ...       0.07793921    -475.56731421
right  ...       0.15587842    -475.56731423
new    ...       0.16525397    -475.56731423

__s__    ...       0.00937555

 ALPHA AFTER:   0.16525397092286870     
  Cycle:     28 Energy:      -475.567314  Gnorm:      0.000725  CPU:    0.100
 Line minimisation2
 ALPHA BEFORE:   0.16525397092286870     
  ** Opt : line minimisation
left   ...       0.00000000    -475.56731423
centre ...       0.04131349    -475.56731427
right  ...       0.08262699    -475.56731431

left   ...       0.00000000    -475.56731423
centre ...       0.04131349    -475.56731427
right  ...       0.08262699    -475.56731431
new    ...       0.29674750    -475.56731441

__s__    ...       0.21412051

 ALPHA AFTER:   0.29674749546669854     
  Cycle:     29 Energy:      -475.567314  Gnorm:      0.000506  CPU:    0.102
 Line minimisation2
 ALPHA BEFORE:   0.29674749546669854     
  ** Opt : line minimisation
left   ...       0.00000000    -475.56731441
centre ...       0.07418687    -475.56731444
right  ...       0.14837375    -475.56731447

left   ...       0.00000000    -475.56731441
centre ...       0.07418687    -475.56731444
right  ...       0.14837375    -475.56731447
new    ...       0.25493094    -475.56731448

__s__    ...       0.10655719

 ALPHA AFTER:   0.25493094039350017     


  **** Optimisation achieved ****


  Final energy =    -475.56731448 eV
  Final Gnorm  =       0.00051149

  Components of energy : 

--------------------------------------------------------------------------------
  Interatomic potentials     =          65.00930956 eV    
  Monopole - monopole (real) =        -237.15330180 eV    
  Monopole - monopole (recip)=        -303.42332225 eV    
  Monopole - monopole (total)=        -540.57662404 eV    
--------------------------------------------------------------------------------
  Total lattice energy       =        -475.56731448 eV    
--------------------------------------------------------------------------------
  Total lattice energy       =          -45884.9761 kJ/(mole unit cells)
--------------------------------------------------------------------------------

  Final fractional coordinates of atoms :

--------------------------------------------------------------------------------
   No.  Atomic        x           y          z          Radius
        Label       (Frac)      (Frac)     (Frac)       (Angs) 
--------------------------------------------------------------------------------
     1  Sr    c     0.999850    0.000360    0.999990    0.000000
     2  Ti    c     0.166516    0.500154    0.500055    0.000000
     3  O     c     0.999849    0.500162    0.500084    0.000000
     4  O     c     0.166515    0.000140    0.500045    0.000000
     5  O     c     0.166515    0.500135    0.000059    0.000000
     6  Sr    c     0.333183    0.000118    0.000081    0.000000
     7  Ti    c     0.499849    0.500110    0.500101    0.000000
     8  O     c     0.333184    0.500102    0.500078    0.000000
     9  O     c     0.499849    0.000110    0.500116    0.000000
    10  O     c     0.499849    0.500112    0.000102    0.000000
    11  Sr    c     0.666515    0.000115    0.000105    0.000000
    12  Ti    c     0.833183    0.500155    0.500081    0.000000
    13  O     c     0.666516    0.500129    0.500091    0.000000
    14  O     c     0.833182    0.000140    0.500085    0.000000
    15  O     c     0.833183    0.500119    0.000086    0.000000
--------------------------------------------------------------------------------

  Final Cartesian lattice vectors (Angstroms) :

       11.869496   -0.000000    0.000000
       -0.000000    3.956498   -0.000000
        0.000000   -0.000000    3.956499


  Final cell parameters and derivatives :

--------------------------------------------------------------------------------
       a           11.869496 Angstrom     dE/de1(xx)     0.001200 eV/strain
       b            3.956498 Angstrom     dE/de2(yy)     0.001182 eV/strain
       c            3.956499 Angstrom     dE/de3(zz)     0.001217 eV/strain
       alpha       90.000000 Degrees      dE/de4(yz)    -0.000017 eV/strain
       beta        90.000000 Degrees      dE/de5(xz)     0.000001 eV/strain
       gamma       90.000000 Degrees      dE/de6(xy)    -0.000001 eV/strain
--------------------------------------------------------------------------------

  Primitive cell volume =           185.803661 Angs**3

  Density of cell =      4.919932 g/cm**3

  Non-primitive cell volume =           185.803661 Angs**3


  Final internal derivatives :

--------------------------------------------------------------------------------
   No.  Atomic          a             b             c           Radius
        Label          (eV)          (eV)          (eV)        (eV/Angs)
--------------------------------------------------------------------------------
      1 Sr    c       0.000000      0.000000      0.000000      0.000000
      2 Ti    c       0.009859     -0.002225     -0.000132      0.000000
      3 O     c      -0.005593      0.004096      0.002734      0.000000
      4 O     c      -0.007047     -0.002455     -0.001608      0.000000
      5 O     c      -0.008059     -0.003141     -0.000257      0.000000
      6 Sr    c      -0.001178     -0.001368      0.000188      0.000000
      7 Ti    c      -0.008214     -0.001358      0.000701      0.000000
      8 O     c       0.008957     -0.007046     -0.000275      0.000000
      9 O     c       0.002985     -0.001364      0.002418      0.000000
     10 O     c       0.002774      0.000910      0.000862      0.000000
     11 Sr    c      -0.003790     -0.001699      0.001589      0.000000
     12 Ti    c       0.000744     -0.001641      0.001384      0.000000
     13 O     c       0.001092     -0.000590      0.000173      0.000000
     14 O     c       0.000766     -0.001929      0.000483      0.000000
     15 O     c       0.002214     -0.006349      0.001556      0.000000
--------------------------------------------------------------------------------
  Maximum abs         0.009859      0.007046      0.002734      0.000000
--------------------------------------------------------------------------------


  Time to end of optimisation =       0.1050 seconds

 Exiting ------OPTIONS------

  Peak dynamic memory used =       0.55 MB 


  Timing analysis for GULP :

--------------------------------------------------------------------------------
  Task / Subroutine                                          Time (Seconds)
--------------------------------------------------------------------------------
  Calculation of reciprocal space energy and derivatives          0.0117
  Calculation of real space energy and derivatives                0.0852
--------------------------------------------------------------------------------
  Total CPU time                                                  0.1050
--------------------------------------------------------------------------------


  Job Finished at 11:51.17  4th February   2020                               

