********************************************************************************
*                       GENERAL UTILITY LATTICE PROGRAM                        *
*                                 Julian Gale                                  *
*                       Curtin Institute for Computation                       *
*                           Department of Chemistry                            *
*                    Curtin University, Western Australia                      *
********************************************************************************
* Version = 5.1.1 * Last modified =  25th August 2019                          *
********************************************************************************
*  optimise     - perform optimisation run                                     *
*  conp         - constant pressure calculation                                *
*  nosymmetry   - turn off symmetry after initial structure generation         *
*  full         - generate full unit cell when symmetry is removed             *
*  conjugate    - use conjugate gradients minimiser                            *
********************************************************************************
* ASE calculation                                                              *
********************************************************************************


  Job Started  at 16:27.50 24th January    2020                               

  Number of CPUs =     1


  Total number of configurations input =      1

********************************************************************************
*  Input for Configuration =   1                                               *
********************************************************************************

  Formula = O9Sr3Ti3                                                    

  Number of irreducible atoms/shells =      15


  Total number atoms/shells =      15

  Dimensionality = 3               :  Bulk   



  Cartesian lattice vectors (Angstroms) :

        4.000000    0.000000    0.000000
        0.000000    6.000000    0.000000
        0.000000    0.000000   10.000000

  Cell parameters (Angstroms/Degrees):

  a =       4.0000    alpha =  90.0000
  b =       6.0000    beta  =  90.0000
  c =      10.0000    gamma =  90.0000

  Initial cell volume =         240.000000 Angs**3

  Temperature of configuration =  0.000     K 

  Pressure of configuration =         0.000 GPa 

  Fractional coordinates of asymmetric unit :

--------------------------------------------------------------------------------
   No.  Atomic       x           y          z         Charge      Occupancy
        Label      (Frac)      (Frac)     (Frac)        (e)         (Frac)  
--------------------------------------------------------------------------------
      1 O     c    0.000000    0.333330    0.800000    -2.00000    1.000000    
      2 O     c    0.000000 *  0.000000 *  0.800000 *  -2.00000    1.000000    
      3 O     c    0.500000 *  0.666670 *  0.600000 *  -2.00000    1.000000    
      4 O     c    0.000000 *  0.666670 *  0.600000 *  -2.00000    1.000000    
      5 O     c    0.000000 *  0.333330 *  0.000000 *  -2.00000    1.000000    
      6 O     c    0.000000 *  0.666670 *  0.800000 *  -2.00000    1.000000    
      7 O     c    0.000000 *  0.000000 *  0.200000 *  -2.00000    1.000000    
      8 O     c    0.500000 *  0.333330 *  0.200000 *  -2.00000    1.000000    
      9 O     c    0.000000 *  0.000000 *  0.000000 *  -2.00000    1.000000    
     10 Sr    c    0.750000 *  0.166670 *  0.900000 *   2.00000    1.000000    
     11 Sr    c    0.250000 *  0.166670 *  0.900000 *   2.00000    1.000000    
     12 Sr    c    0.250000 *  0.166670 *  0.100000 *   2.00000    1.000000    
     13 Ti    c    0.750000 *  0.166670 *  0.700000 *   4.00000    1.000000    
     14 Ti    c    0.250000 *  0.166670 *  0.500000 *   4.00000    1.000000    
     15 Ti    c    0.250000 *  0.166670 *  0.700000 *   4.00000    1.000000    
--------------------------------------------------------------------------------



********************************************************************************
*  General input information                                                   *
********************************************************************************

  Species output for all configurations : 

--------------------------------------------------------------------------------
  Species    Type    Atomic    Atomic    Charge       Radii (Angs)     Library
                     Number     Mass       (e)     Cova   Ionic  VDW   Symbol
--------------------------------------------------------------------------------
    O        Core        8      16.00  -2.000000   0.730  0.000  1.360          
    Sr       Core       38      87.62   2.000000   1.120  0.000  1.670          
    Ti       Core       22      47.88   4.000000   1.470  0.000  2.190          
--------------------------------------------------------------------------------


  Lattice summation method               =    Ewald          (3-D)
                                         =    Parry          (2-D)
                                         =    Saunders et al (1-D)
  Accuracy factor for lattice sums       =   12.000


  Time limit = Infinity

  Maximum range for interatomic potentials =    100000.000000 Angstroms

  General interatomic potentials :

--------------------------------------------------------------------------------
Atom  Types   Potential      Parameter       Value         Units   Cutoffs(Ang)
  1     2                                                            Min /  Max 
--------------------------------------------------------------------------------
O    c Sr   c Buckingham    Buckingham A     1952.3900    eV        0.000 10.000
                            Buckingham rho  0.33685000    Ang       
                            Buckingham C     19.220000    eV*Ang^6  
--------------------------------------------------------------------------------
O    c Ti   c Buckingham    Buckingham A     4590.7279    eV        0.000 10.000
                            Buckingham rho  0.26100000    Ang       
                            Buckingham C     0.0000000    eV*Ang^6  
--------------------------------------------------------------------------------
O    c O    c Buckingham    Buckingham A     1388.7700    eV        0.000 10.000
                            Buckingham rho  0.36262000    Ang       
                            Buckingham C     175.00000    eV*Ang^6  
--------------------------------------------------------------------------------
 Calling ------OPTIONS------

********************************************************************************
*  Output for configuration   1                                                *
********************************************************************************


  Components of energy : 

--------------------------------------------------------------------------------
  Interatomic potentials     =         184.55920138 eV    
  Monopole - monopole (real) =          -3.58671899 eV    
  Monopole - monopole (recip)=        -195.13406381 eV    
  Monopole - monopole (total)=        -198.72078279 eV    
--------------------------------------------------------------------------------
  Total lattice energy       =         -14.16158142 eV    
--------------------------------------------------------------------------------
  Total lattice energy       =           -1366.3761 kJ/(mole unit cells)
--------------------------------------------------------------------------------


  Number of variables =       48

  Maximum number of calculations  =          1000
  Maximum Hessian update interval =            10
  Maximum step size               =   0.250000000
  Maximum parameter tolerance     =   0.000010000
  Maximum function  tolerance     =   0.000010000
  Maximum gradient  tolerance     =   0.001000000
  Maximum gradient  component     =   0.010000000

  Cell parameters to be optimised using strains

  Conjugate gradient optimiser to be used

  Lower half triangular hessian to be used

  Start of bulk optimisation :

  Cycle:      0 Energy:       -14.161581  Gnorm:     35.512526  CPU:    0.012
 Perform trimming
 Line minimisation2
 ALPHA BEFORE:    1.0000000000000000     
 ALPHA AFTER:    1.1929124662675989     
  Cycle:      1 Energy:      -223.341600  Gnorm:     16.220861  CPU:    0.027
 Perform trimming
 Line minimisation2
 ALPHA BEFORE:    1.1929124662675989     
 ALPHA AFTER:   0.36077205389863942     
  Cycle:      2 Energy:      -270.010667  Gnorm:     13.412150  CPU:    0.033
 Perform trimming
 Line minimisation2
 ALPHA BEFORE:   0.36077205389863942     
 ALPHA AFTER:   0.29368150705924767     
  Cycle:      3 Energy:      -309.657979  Gnorm:      9.487847  CPU:    0.039
 Line minimisation2
 ALPHA BEFORE:   0.29368150705924767     
 ALPHA AFTER:   0.34808942709189256     
  Cycle:      4 Energy:      -345.288392  Gnorm:      9.888521  CPU:    0.043
 Perform trimming
 Line minimisation2
 ALPHA BEFORE:   0.34808942709189256     
 ALPHA AFTER:   0.21593435772272596     
  Cycle:      5 Energy:      -369.907253  Gnorm:      9.669984  CPU:    0.047
 Line minimisation2
 ALPHA BEFORE:   0.21593435772272596     
 ALPHA AFTER:   0.19185209264329536     
  Cycle:      6 Energy:      -395.460497  Gnorm:      7.917963  CPU:    0.051
 Line minimisation2
 ALPHA BEFORE:   0.19185209264329536     
 ALPHA AFTER:    9.2488467790939749E-002
  Cycle:      7 Energy:      -402.407162  Gnorm:      6.131311  CPU:    0.054
 Line minimisation2
 ALPHA BEFORE:    9.2488467790939749E-002
 ALPHA AFTER:   0.14336983541427242     
  Cycle:      8 Energy:      -410.276270  Gnorm:      5.290477  CPU:    0.059
 Line minimisation2
 ALPHA BEFORE:   0.14336983541427242     
 ALPHA AFTER:   0.22137919992966321     
  Cycle:      9 Energy:      -418.064939  Gnorm:      6.044907  CPU:    0.062
 Line minimisation2
 ALPHA BEFORE:   0.22137919992966321     
 ALPHA AFTER:    6.3966042845588988E-002
  Cycle:     10 Energy:      -420.735819  Gnorm:      4.039454  CPU:    0.066
 Line minimisation2
 ALPHA BEFORE:    6.3966042845588988E-002
 ALPHA AFTER:   0.20564839285814993     
  Cycle:     11 Energy:      -424.598876  Gnorm:      5.103923  CPU:    0.069
 Perform trimming
 Line minimisation2
 ALPHA BEFORE:   0.20564839285814993     
 ALPHA AFTER:   0.10282419642907496     
  Cycle:     12 Energy:      -427.675573  Gnorm:      3.792214  CPU:    0.072
 Line minimisation2
 ALPHA BEFORE:   0.10282419642907496     
 ALPHA AFTER:   0.24494123922262945     
  Cycle:     13 Energy:      -432.029590  Gnorm:      5.123488  CPU:    0.076
 Perform trimming
 Line minimisation2
 ALPHA BEFORE:   0.24494123922262945     
 ALPHA AFTER:    8.3545291869683416E-002
  Cycle:     14 Energy:      -433.778034  Gnorm:      3.181097  CPU:    0.079
 Line minimisation2
 ALPHA BEFORE:    8.3545291869683416E-002
 ALPHA AFTER:   0.17249293213272518     
  Cycle:     15 Energy:      -435.773420  Gnorm:      3.289639  CPU:    0.083
 Line minimisation2
 ALPHA BEFORE:   0.17249293213272518     
 ALPHA AFTER:    6.2993467499721192E-002
  Cycle:     16 Energy:      -436.525704  Gnorm:      3.274685  CPU:    0.086
 Line minimisation2
 ALPHA BEFORE:    6.2993467499721192E-002
 ALPHA AFTER:   0.13433479330780415     
  Cycle:     17 Energy:      -438.182342  Gnorm:      3.238738  CPU:    0.090
 Line minimisation2
 ALPHA BEFORE:   0.13433479330780415     
 ALPHA AFTER:   0.22237958198051749     
  Cycle:     18 Energy:      -440.922611  Gnorm:      5.080935  CPU:    0.093
 Perform trimming
 Line minimisation2
 ALPHA BEFORE:   0.22237958198051749     
 ALPHA AFTER:   0.11118979099025875     
  Cycle:     19 Energy:      -443.164577  Gnorm:      3.101966  CPU:    0.096
 Line minimisation2
 ALPHA BEFORE:   0.11118979099025875     
 ALPHA AFTER:    9.2141312875816353E-002
  Cycle:     20 Energy:      -444.185151  Gnorm:      2.664404  CPU:    0.099
 Line minimisation2
 ALPHA BEFORE:    9.2141312875816353E-002
 ALPHA AFTER:    8.6947660912121819E-002
  Cycle:     21 Energy:      -444.909451  Gnorm:      1.818551  CPU:    0.103
 Line minimisation2
 ALPHA BEFORE:    8.6947660912121819E-002
 ALPHA AFTER:    7.4758909390892928E-002
  Cycle:     22 Energy:      -445.187260  Gnorm:      1.848778  CPU:    0.106
 Line minimisation2
 ALPHA BEFORE:    7.4758909390892928E-002
 ALPHA AFTER:   0.16114441660047582     
  Cycle:     23 Energy:      -445.785615  Gnorm:      1.607577  CPU:    0.110
 Line minimisation2
 ALPHA BEFORE:   0.16114441660047582     
 ALPHA AFTER:   0.23142086121970723     
  Cycle:     24 Energy:      -446.469511  Gnorm:      2.623912  CPU:    0.114
 Perform trimming
 Line minimisation2
 ALPHA BEFORE:   0.23142086121970723     
 ALPHA AFTER:   0.20621789117116945     
  Cycle:     25 Energy:      -447.305804  Gnorm:      2.297968  CPU:    0.117
 Line minimisation2
 ALPHA BEFORE:   0.20621789117116945     
 ALPHA AFTER:    7.8120519351802128E-002
  Cycle:     26 Energy:      -447.763864  Gnorm:      2.239242  CPU:    0.120
 Line minimisation2
 ALPHA BEFORE:    7.8120519351802128E-002
 ALPHA AFTER:   0.15022456121374447     
  Cycle:     27 Energy:      -448.640812  Gnorm:      1.642739  CPU:    0.124
 Line minimisation2
 ALPHA BEFORE:   0.15022456121374447     
 ALPHA AFTER:   0.14592328340280386     
  Cycle:     28 Energy:      -449.100952  Gnorm:      2.509369  CPU:    0.129
 Perform trimming
 Line minimisation2
 ALPHA BEFORE:   0.14592328340280386     
 ALPHA AFTER:    8.7230381824200204E-002
  Cycle:     29 Energy:      -449.483619  Gnorm:      1.497245  CPU:    0.133
 Line minimisation2
 ALPHA BEFORE:    8.7230381824200204E-002
 ALPHA AFTER:    8.5115972914721241E-002
  Cycle:     30 Energy:      -449.704570  Gnorm:      0.967803  CPU:    0.137
 Line minimisation2
 ALPHA BEFORE:    8.5115972914721241E-002
 ALPHA AFTER:    6.5531483190032047E-002
  Cycle:     31 Energy:      -449.775749  Gnorm:      0.977269  CPU:    0.141
 Line minimisation2
 ALPHA BEFORE:    6.5531483190032047E-002
 ALPHA AFTER:   0.31621360966049356     
  Cycle:     32 Energy:      -450.129234  Gnorm:      1.185732  CPU:    0.146
 Perform trimming
 Line minimisation2
 ALPHA BEFORE:   0.31621360966049356     
 ALPHA AFTER:    9.2925536751357896E-002
  Cycle:     33 Energy:      -450.259945  Gnorm:      1.105060  CPU:    0.150
 Line minimisation2
 ALPHA BEFORE:    9.2925536751357896E-002
 ALPHA AFTER:   0.18547358606833192     
  Cycle:     34 Energy:      -450.520350  Gnorm:      1.371511  CPU:    0.155
 Perform trimming
 Line minimisation2
 ALPHA BEFORE:   0.18547358606833192     
 ALPHA AFTER:   0.44129970318863337     
  Cycle:     35 Energy:      -451.297305  Gnorm:      1.831497  CPU:    0.160
 Perform trimming
 Line minimisation2
 ALPHA BEFORE:   0.44129970318863337     
 ALPHA AFTER:   0.14015683455807748     
  Cycle:     36 Energy:      -451.771119  Gnorm:      2.300500  CPU:    0.164
 Perform trimming
 Line minimisation2
 ALPHA BEFORE:   0.14015683455807748     
 ALPHA AFTER:    8.0503981679277095E-002
  Cycle:     37 Energy:      -452.211244  Gnorm:      1.791350  CPU:    0.168
 Line minimisation2
 ALPHA BEFORE:    8.0503981679277095E-002
 ALPHA AFTER:   0.11913312202630148     
  Cycle:     38 Energy:      -452.651676  Gnorm:      2.532244  CPU:    0.173
 Perform trimming
 Line minimisation2
 ALPHA BEFORE:   0.11913312202630148     
 ALPHA AFTER:   0.18999247460304733     
  Cycle:     39 Energy:      -453.652431  Gnorm:      2.983513  CPU:    0.179
 Line minimisation2
 ALPHA BEFORE:   0.18999247460304733     
 ALPHA AFTER:    5.4175700041624593E-002
  Cycle:     40 Energy:      -454.227343  Gnorm:      1.964395  CPU:    0.185
 Line minimisation2
 ALPHA BEFORE:    5.4175700041624593E-002
 ALPHA AFTER:    7.2413399454144808E-002
  Cycle:     41 Energy:      -454.550132  Gnorm:      1.440901  CPU:    0.191
 Line minimisation2
 ALPHA BEFORE:    7.2413399454144808E-002
 ALPHA AFTER:   0.13164177649938819     
  Cycle:     42 Energy:      -454.869176  Gnorm:      2.071555  CPU:    0.198
 Perform trimming
 Line minimisation2
 ALPHA BEFORE:   0.13164177649938819     
 ALPHA AFTER:    9.3827049219253875E-002
  Cycle:     43 Energy:      -455.173627  Gnorm:      1.467865  CPU:    0.203
 Line minimisation2
 ALPHA BEFORE:    9.3827049219253875E-002
 ALPHA AFTER:   0.23217683505352513     
  Cycle:     44 Energy:      -455.752175  Gnorm:      1.901352  CPU:    0.209
 Perform trimming
 Line minimisation2
 ALPHA BEFORE:   0.23217683505352513     
 ALPHA AFTER:   0.16421823698237023     
  Cycle:     45 Energy:      -456.204257  Gnorm:      2.569693  CPU:    0.214
 Perform trimming
 Line minimisation2
 ALPHA BEFORE:   0.16421823698237023     
 ALPHA AFTER:    6.1617021222986200E-002
  Cycle:     46 Energy:      -456.542101  Gnorm:      1.438489  CPU:    0.219
 Line minimisation2
 ALPHA BEFORE:    6.1617021222986200E-002
 ALPHA AFTER:    7.6455926797564258E-002
  Cycle:     47 Energy:      -456.724631  Gnorm:      1.533319  CPU:    0.226
 Perform trimming
 Line minimisation2
 ALPHA BEFORE:    7.6455926797564258E-002
 ALPHA AFTER:    9.6380568507505537E-002
  Cycle:     48 Energy:      -456.984727  Gnorm:      1.034521  CPU:    0.232
 Line minimisation2
 ALPHA BEFORE:    9.6380568507505537E-002
 ALPHA AFTER:   0.15224071250589669     
  Cycle:     49 Energy:      -457.173316  Gnorm:      1.076659  CPU:    0.238
 Line minimisation2
 ALPHA BEFORE:   0.15224071250589669     
 ALPHA AFTER:    5.3775344260539266E-002
  Cycle:     50 Energy:      -457.244639  Gnorm:      0.917535  CPU:    0.243
 Line minimisation2
 ALPHA BEFORE:    5.3775344260539266E-002
 ALPHA AFTER:    5.8560829744352845E-002
  Cycle:     51 Energy:      -457.300675  Gnorm:      0.649324  CPU:    0.250
 Line minimisation2
 ALPHA BEFORE:    5.8560829744352845E-002
 ALPHA AFTER:   0.25219120875852291     
  Cycle:     52 Energy:      -457.422963  Gnorm:      0.829056  CPU:    0.256
 Perform trimming
 Line minimisation2
 ALPHA BEFORE:   0.25219120875852291     
 ALPHA AFTER:   0.23155160501083591     
  Cycle:     53 Energy:      -457.564181  Gnorm:      1.680787  CPU:    0.262
 Perform trimming
 Line minimisation2
 ALPHA BEFORE:   0.23155160501083591     
 ALPHA AFTER:   0.21888375879440536     
  Cycle:     54 Energy:      -457.817014  Gnorm:      1.370653  CPU:    0.269
 Line minimisation2
 ALPHA BEFORE:   0.21888375879440536     
 ALPHA AFTER:    5.0772203717064375E-002
  Cycle:     55 Energy:      -457.926697  Gnorm:      0.938050  CPU:    0.275
 Line minimisation2
 ALPHA BEFORE:    5.0772203717064375E-002
 ALPHA AFTER:   0.10840131791104184     
  Cycle:     56 Energy:      -458.038366  Gnorm:      0.954628  CPU:    0.281
 Line minimisation2
 ALPHA BEFORE:   0.10840131791104184     
 ALPHA AFTER:   0.23645552655155333     
  Cycle:     57 Energy:      -458.287919  Gnorm:      1.209213  CPU:    0.287
 Perform trimming
 Line minimisation2
 ALPHA BEFORE:   0.23645552655155333     
 ALPHA AFTER:    8.2290429660294984E-002
  Cycle:     58 Energy:      -458.418013  Gnorm:      1.627611  CPU:    0.293
 Perform trimming
 Line minimisation2
 ALPHA BEFORE:    8.2290429660294984E-002
 ALPHA AFTER:   0.21502450477611687     
  Cycle:     59 Energy:      -458.950231  Gnorm:      1.553432  CPU:    0.299
 Line minimisation2
 ALPHA BEFORE:   0.21502450477611687     
 ALPHA AFTER:    5.3756126194029218E-002
  Cycle:     60 Energy:      -459.097350  Gnorm:      1.462731  CPU:    0.306
 Line minimisation2
 ALPHA BEFORE:    5.3756126194029218E-002
 ALPHA AFTER:   0.10446216154809557     
  Cycle:     61 Energy:      -459.356665  Gnorm:      1.267858  CPU:    0.312
 Line minimisation2
 ALPHA BEFORE:   0.10446216154809557     
 ALPHA AFTER:    7.3758734616878235E-002
  Cycle:     62 Energy:      -459.492171  Gnorm:      1.011566  CPU:    0.317
 Line minimisation2
 ALPHA BEFORE:    7.3758734616878235E-002
 ALPHA AFTER:    5.9697618345078717E-002
  Cycle:     63 Energy:      -459.563413  Gnorm:      0.866862  CPU:    0.322
 Line minimisation2
 ALPHA BEFORE:    5.9697618345078717E-002
 ALPHA AFTER:   0.18166759457861059     
  Cycle:     64 Energy:      -459.721321  Gnorm:      0.833807  CPU:    0.329
 Line minimisation2
 ALPHA BEFORE:   0.18166759457861059     
 ALPHA AFTER:   0.10788299660068708     
  Cycle:     65 Energy:      -459.807485  Gnorm:      1.373453  CPU:    0.334
 Perform trimming
 Line minimisation2
 ALPHA BEFORE:   0.10788299660068708     
 ALPHA AFTER:   0.26778968551729970     
  Cycle:     66 Energy:      -460.114877  Gnorm:      1.671986  CPU:    0.340
 Perform trimming
 Line minimisation2
 ALPHA BEFORE:   0.26778968551729970     
 ALPHA AFTER:   0.11561958200376005     
  Cycle:     67 Energy:      -460.450277  Gnorm:      1.422990  CPU:    0.345
 Line minimisation2
 ALPHA BEFORE:   0.11561958200376005     
 ALPHA AFTER:    4.4168371000229766E-002
  Cycle:     68 Energy:      -460.554012  Gnorm:      0.881918  CPU:    0.350
 Line minimisation2
 ALPHA BEFORE:    4.4168371000229766E-002
 ALPHA AFTER:   0.16875607358718483     
  Cycle:     69 Energy:      -460.703603  Gnorm:      1.210305  CPU:    0.357
 Line minimisation2
 ALPHA BEFORE:   0.16875607358718483     
 ALPHA AFTER:    3.1775092050352005E-002
  Cycle:     70 Energy:      -460.756703  Gnorm:      0.488290  CPU:    0.363
 Line minimisation2
 ALPHA BEFORE:    3.1775092050352005E-002
 ALPHA AFTER:   0.15036926785783516     
  Cycle:     71 Energy:      -460.797596  Gnorm:      0.618552  CPU:    0.370
 Perform trimming
 Line minimisation2
 ALPHA BEFORE:   0.15036926785783516     
 ALPHA AFTER:   0.39631779622944663     
  Cycle:     72 Energy:      -460.925513  Gnorm:      1.047968  CPU:    0.376
 Perform trimming
 Line minimisation2
 ALPHA BEFORE:   0.39631779622944663     
 ALPHA AFTER:   0.11169859003435663     
  Cycle:     73 Energy:      -460.991374  Gnorm:      0.805372  CPU:    0.383
 Line minimisation2
 ALPHA BEFORE:   0.11169859003435663     
 ALPHA AFTER:    6.6882199293246403E-002
  Cycle:     74 Energy:      -461.041260  Gnorm:      0.605324  CPU:    0.388
 Line minimisation2
 ALPHA BEFORE:    6.6882199293246403E-002
 ALPHA AFTER:    8.2373643156713805E-002
  Cycle:     75 Energy:      -461.075707  Gnorm:      0.469435  CPU:    0.394
 Line minimisation2
 ALPHA BEFORE:    8.2373643156713805E-002
 ALPHA AFTER:   0.15618918960112577     
  Cycle:     76 Energy:      -461.114840  Gnorm:      0.595267  CPU:    0.401
 Perform trimming
 Line minimisation2
 ALPHA BEFORE:   0.15618918960112577     
 ALPHA AFTER:   0.16413700405622689     
  Cycle:     77 Energy:      -461.171752  Gnorm:      0.750589  CPU:    0.408
 Perform trimming
 Line minimisation2
 ALPHA BEFORE:   0.16413700405622689     
 ALPHA AFTER:    7.3275550824519559E-002
  Cycle:     78 Energy:      -461.214058  Gnorm:      0.615851  CPU:    0.413
 Line minimisation2
 ALPHA BEFORE:    7.3275550824519559E-002
 ALPHA AFTER:   0.28933336696416684     
  Cycle:     79 Energy:      -461.340532  Gnorm:      1.068522  CPU:    0.419
 Line minimisation2
 ALPHA BEFORE:   0.28933336696416684     
 ALPHA AFTER:    3.1035896265840714E-002
  Cycle:     80 Energy:      -461.381518  Gnorm:      0.477092  CPU:    0.426
 Line minimisation2
 ALPHA BEFORE:    3.1035896265840714E-002
 ALPHA AFTER:   0.10908621542985548     
  Cycle:     81 Energy:      -461.409981  Gnorm:      0.398015  CPU:    0.432
 Line minimisation2
 ALPHA BEFORE:   0.10908621542985548     
 ALPHA AFTER:   0.12796121401994329     
  Cycle:     82 Energy:      -461.433248  Gnorm:      0.382779  CPU:    0.439
 Line minimisation2
 ALPHA BEFORE:   0.12796121401994329     
 ALPHA AFTER:    9.1665449726497011E-002
  Cycle:     83 Energy:      -461.448725  Gnorm:      0.464476  CPU:    0.444
 Perform trimming
 Line minimisation2
 ALPHA BEFORE:    9.1665449726497011E-002
 ALPHA AFTER:   0.11408590429190767     
  Cycle:     84 Energy:      -461.474937  Gnorm:      0.383082  CPU:    0.451
 Line minimisation2
 ALPHA BEFORE:   0.11408590429190767     
 ALPHA AFTER:   0.33105901923232145     
  Cycle:     85 Energy:      -461.531104  Gnorm:      0.454447  CPU:    0.457
 Perform trimming
 Line minimisation2
 ALPHA BEFORE:   0.33105901923232145     
 ALPHA AFTER:   0.12369498160973406     
  Cycle:     86 Energy:      -461.556759  Gnorm:      0.697339  CPU:    0.464
 Perform trimming
 Line minimisation2
 ALPHA BEFORE:   0.12369498160973406     
 ALPHA AFTER:   0.12912700193995799     
  Cycle:     87 Energy:      -461.601321  Gnorm:      0.484244  CPU:    0.473
 Line minimisation2
 ALPHA BEFORE:   0.12912700193995799     
 ALPHA AFTER:   0.10131217754949427     
  Cycle:     88 Energy:      -461.627673  Gnorm:      0.635779  CPU:    0.481
 Perform trimming
 Line minimisation2
 ALPHA BEFORE:   0.10131217754949427     
 ALPHA AFTER:   0.12229686413512186     
  Cycle:     89 Energy:      -461.668643  Gnorm:      0.544146  CPU:    0.490
 Line minimisation2
 ALPHA BEFORE:   0.12229686413512186     
 ALPHA AFTER:    6.3169432620701613E-002
  Cycle:     90 Energy:      -461.690224  Gnorm:      0.436023  CPU:    0.498
 Line minimisation2
 ALPHA BEFORE:    6.3169432620701613E-002
 ALPHA AFTER:    7.2147339067262686E-002
  Cycle:     91 Energy:      -461.706070  Gnorm:      0.462206  CPU:    0.507
 Line minimisation2
 ALPHA BEFORE:    7.2147339067262686E-002
 ALPHA AFTER:   0.13502329483429509     
  Cycle:     92 Energy:      -461.738305  Gnorm:      0.410690  CPU:    0.516
 Line minimisation2
 ALPHA BEFORE:   0.13502329483429509     
 ALPHA AFTER:    8.8443130513007034E-002
  Cycle:     93 Energy:      -461.755162  Gnorm:      0.496592  CPU:    0.524
 Perform trimming
 Line minimisation2
 ALPHA BEFORE:    8.8443130513007034E-002
 ALPHA AFTER:    9.8991862500053374E-002
  Cycle:     94 Energy:      -461.781535  Gnorm:      0.422967  CPU:    0.533
 Line minimisation2
 ALPHA BEFORE:    9.8991862500053374E-002
 ALPHA AFTER:   0.12795080749690946     
  Cycle:     95 Energy:      -461.807495  Gnorm:      0.329116  CPU:    0.542
 Line minimisation2
 ALPHA BEFORE:   0.12795080749690946     
 ALPHA AFTER:   0.12524910760680991     
  Cycle:     96 Energy:      -461.823168  Gnorm:      0.448141  CPU:    0.552
 Perform trimming
 Line minimisation2
 ALPHA BEFORE:   0.12524910760680991     
 ALPHA AFTER:    7.6924886880648954E-002
  Cycle:     97 Energy:      -461.836290  Gnorm:      0.290453  CPU:    0.559
 Line minimisation2
 ALPHA BEFORE:    7.6924886880648954E-002
 ALPHA AFTER:   0.27006876434681026     
  Cycle:     98 Energy:      -461.861918  Gnorm:      0.484397  CPU:    0.568
 Perform trimming
 Line minimisation2
 ALPHA BEFORE:   0.27006876434681026     
 ALPHA AFTER:   0.12741396756447296     
  Cycle:     99 Energy:      -461.877764  Gnorm:      0.426804  CPU:    0.576
 Line minimisation2
 ALPHA BEFORE:   0.12741396756447296     
 ALPHA AFTER:    6.1285363000496182E-002
  Cycle:    100 Energy:      -461.890652  Gnorm:      0.430250  CPU:    0.584
 Line minimisation2
 ALPHA BEFORE:    6.1285363000496182E-002
 ALPHA AFTER:    8.1725770969638373E-002
  Cycle:    101 Energy:      -461.908018  Gnorm:      0.280029  CPU:    0.591
 Line minimisation2
 ALPHA BEFORE:    8.1725770969638373E-002
 ALPHA AFTER:   0.16835963752841540     
  Cycle:    102 Energy:      -461.923079  Gnorm:      0.348609  CPU:    0.601
 Perform trimming
 Line minimisation2
 ALPHA BEFORE:   0.16835963752841540     
 ALPHA AFTER:   0.11358166512408187     
  Cycle:    103 Energy:      -461.935877  Gnorm:      0.401743  CPU:    0.609
 Perform trimming
 Line minimisation2
 ALPHA BEFORE:   0.11358166512408187     
 ALPHA AFTER:    8.6298859464256319E-002
  Cycle:    104 Energy:      -461.950566  Gnorm:      0.381795  CPU:    0.617
 Line minimisation2
 ALPHA BEFORE:    8.6298859464256319E-002
 ALPHA AFTER:   0.19064760042608037     
  Cycle:    105 Energy:      -461.981357  Gnorm:      0.389754  CPU:    0.626
 Line minimisation2
 ALPHA BEFORE:   0.19064760042608037     
 ALPHA AFTER:    6.9996970284903204E-002
  Cycle:    106 Energy:      -461.993495  Gnorm:      0.421235  CPU:    0.633
 Line minimisation2
 ALPHA BEFORE:    6.9996970284903204E-002
 ALPHA AFTER:   0.10408046666248641     
  Cycle:    107 Energy:      -462.014611  Gnorm:      0.407361  CPU:    0.643
 Line minimisation2
 ALPHA BEFORE:   0.10408046666248641     
 ALPHA AFTER:    8.3835978512767723E-002
  Cycle:    108 Energy:      -462.031001  Gnorm:      0.407967  CPU:    0.650
 Line minimisation2
 ALPHA BEFORE:    8.3835978512767723E-002
 ALPHA AFTER:   0.10642618463999076     
  Cycle:    109 Energy:      -462.051585  Gnorm:      0.516355  CPU:    0.660
 Line minimisation2
 ALPHA BEFORE:   0.10642618463999076     
 ALPHA AFTER:    4.0286009956838918E-002
  Cycle:    110 Energy:      -462.063882  Gnorm:      0.333734  CPU:    0.667
 Line minimisation2
 ALPHA BEFORE:    4.0286009956838918E-002
 ALPHA AFTER:   0.12649535115844654     
  Cycle:    111 Energy:      -462.080137  Gnorm:      0.414369  CPU:    0.677
 Perform trimming
 Line minimisation2
 ALPHA BEFORE:   0.12649535115844654     
 ALPHA AFTER:   0.16871670028506805     
  Cycle:    112 Energy:      -462.106267  Gnorm:      0.329247  CPU:    0.686
 Line minimisation2
 ALPHA BEFORE:   0.16871670028506805     
 ALPHA AFTER:    6.6844376001974723E-002
  Cycle:    113 Energy:      -462.114650  Gnorm:      0.392629  CPU:    0.693
 Perform trimming
 Line minimisation2
 ALPHA BEFORE:    6.6844376001974723E-002
 ALPHA AFTER:   0.19012392249331850     
  Cycle:    114 Energy:      -462.145528  Gnorm:      0.273257  CPU:    0.705
 Line minimisation2
 ALPHA BEFORE:   0.19012392249331850     
 ALPHA AFTER:   0.17501349929476889     
  Cycle:    115 Energy:      -462.160592  Gnorm:      0.324942  CPU:    0.714
 Perform trimming
 Line minimisation2
 ALPHA BEFORE:   0.17501349929476889     
 ALPHA AFTER:    8.1339084577658968E-002
  Cycle:    116 Energy:      -462.169836  Gnorm:      0.358258  CPU:    0.722
 Line minimisation2
 ALPHA BEFORE:    8.1339084577658968E-002
 ALPHA AFTER:    8.9761306669934968E-002
  Cycle:    117 Energy:      -462.182999  Gnorm:      0.276330  CPU:    0.731
 Line minimisation2
 ALPHA BEFORE:    8.9761306669934968E-002
 ALPHA AFTER:   0.18145489156951203     
  Cycle:    118 Energy:      -462.199033  Gnorm:      0.469924  CPU:    0.740
 Perform trimming
 Line minimisation2
 ALPHA BEFORE:   0.18145489156951203     
 ALPHA AFTER:   0.17711341558201446     
  Cycle:    119 Energy:      -462.221669  Gnorm:      0.580124  CPU:    0.750
 Line minimisation2
 ALPHA BEFORE:   0.17711341558201446     
 ALPHA AFTER:    5.5534065509390461E-002
  Cycle:    120 Energy:      -462.243359  Gnorm:      0.477362  CPU:    0.759
 Line minimisation2
 ALPHA BEFORE:    5.5534065509390461E-002
 ALPHA AFTER:    6.1551478694015942E-002
  Cycle:    121 Energy:      -462.259533  Gnorm:      0.256750  CPU:    0.768
 Line minimisation2
 ALPHA BEFORE:    6.1551478694015942E-002
 ALPHA AFTER:   0.15507994451080090     
  Cycle:    122 Energy:      -462.271389  Gnorm:      0.356361  CPU:    0.778
 Perform trimming
 Line minimisation2
 ALPHA BEFORE:   0.15507994451080090     
 ALPHA AFTER:   0.10339326168563229     
  Cycle:    123 Energy:      -462.281360  Gnorm:      0.336794  CPU:    0.785
 Line minimisation2
 ALPHA BEFORE:   0.10339326168563229     
 ALPHA AFTER:   0.11726589526806511     
  Cycle:    124 Energy:      -462.296192  Gnorm:      0.369083  CPU:    0.795
 Perform trimming
 Line minimisation2
 ALPHA BEFORE:   0.11726589526806511     
 ALPHA AFTER:   0.11365173295654003     
  Cycle:    125 Energy:      -462.311366  Gnorm:      0.394229  CPU:    0.804
 Line minimisation2
 ALPHA BEFORE:   0.11365173295654003     
 ALPHA AFTER:    8.4970204068399641E-002
  Cycle:    126 Energy:      -462.326030  Gnorm:      0.299391  CPU:    0.812
 Line minimisation2
 ALPHA BEFORE:    8.4970204068399641E-002
 ALPHA AFTER:    7.0154639185744411E-002
  Cycle:    127 Energy:      -462.332823  Gnorm:      0.315373  CPU:    0.820
 Line minimisation2
 ALPHA BEFORE:    7.0154639185744411E-002
 ALPHA AFTER:   0.11618283137749681     
  Cycle:    128 Energy:      -462.346370  Gnorm:      0.327777  CPU:    0.829
 Line minimisation2
 ALPHA BEFORE:   0.11618283137749681     
 ALPHA AFTER:   0.12187815659311338     
  Cycle:    129 Energy:      -462.361406  Gnorm:      0.418831  CPU:    0.839
 Line minimisation2
 ALPHA BEFORE:   0.12187815659311338     
 ALPHA AFTER:    4.3331988667828926E-002
  Cycle:    130 Energy:      -462.370120  Gnorm:      0.289492  CPU:    0.846
 Line minimisation2
 ALPHA BEFORE:    4.3331988667828926E-002
 ALPHA AFTER:    8.9323712270060127E-002
  Cycle:    131 Energy:      -462.378665  Gnorm:      0.250145  CPU:    0.854
 Line minimisation2
 ALPHA BEFORE:    8.9323712270060127E-002
 ALPHA AFTER:   0.18902942217825164     
  Cycle:    132 Energy:      -462.392050  Gnorm:      0.305217  CPU:    0.863
 Perform trimming
 Line minimisation2
 ALPHA BEFORE:   0.18902942217825164     
 ALPHA AFTER:   0.11076307456385558     
  Cycle:    133 Energy:      -462.402620  Gnorm:      0.407854  CPU:    0.871
 Perform trimming
 Line minimisation2
 ALPHA BEFORE:   0.11076307456385558     
 ALPHA AFTER:    9.9525879925318778E-002
  Cycle:    134 Energy:      -462.417002  Gnorm:      0.295568  CPU:    0.878
 Line minimisation2
 ALPHA BEFORE:    9.9525879925318778E-002
 ALPHA AFTER:   0.14492859811042932     
  Cycle:    135 Energy:      -462.431505  Gnorm:      0.369851  CPU:    0.888
 Perform trimming
 Line minimisation2
 ALPHA BEFORE:   0.14492859811042932     
 ALPHA AFTER:    9.6400139226205023E-002
  Cycle:    136 Energy:      -462.443594  Gnorm:      0.335555  CPU:    0.895
 Line minimisation2
 ALPHA BEFORE:    9.6400139226205023E-002
 ALPHA AFTER:    8.7212222976045611E-002
  Cycle:    137 Energy:      -462.454698  Gnorm:      0.288639  CPU:    0.903
 Line minimisation2
 ALPHA BEFORE:    8.7212222976045611E-002
 ALPHA AFTER:   0.14057003949165181     
  Cycle:    138 Energy:      -462.467901  Gnorm:      0.446801  CPU:    0.912
 Perform trimming
 Line minimisation2
 ALPHA BEFORE:   0.14057003949165181     
 ALPHA AFTER:   0.15557234442764734     
  Cycle:    139 Energy:      -462.489606  Gnorm:      0.429881  CPU:    0.922
 Line minimisation2
 ALPHA BEFORE:   0.15557234442764734     
 ALPHA AFTER:    7.7786172213823668E-002
  Cycle:    140 Energy:      -462.506840  Gnorm:      0.449210  CPU:    0.929
 Perform trimming
 Line minimisation2
 ALPHA BEFORE:    7.7786172213823668E-002
 ALPHA AFTER:    5.2826714051467320E-002
  Cycle:    141 Energy:      -462.519384  Gnorm:      0.251322  CPU:    0.937
 Line minimisation2
 ALPHA BEFORE:    5.2826714051467320E-002
 ALPHA AFTER:   0.21702987032834301     
  Cycle:    142 Energy:      -462.535872  Gnorm:      0.266079  CPU:    0.947
 Line minimisation2
 ALPHA BEFORE:   0.21702987032834301     
 ALPHA AFTER:    9.0702138772918398E-002
  Cycle:    143 Energy:      -462.543425  Gnorm:      0.328353  CPU:    0.954
 Perform trimming
 Line minimisation2
 ALPHA BEFORE:    9.0702138772918398E-002
 ALPHA AFTER:   0.11591798513465733     
  Cycle:    144 Energy:      -462.556729  Gnorm:      0.336681  CPU:    0.964
 Line minimisation2
 ALPHA BEFORE:   0.11591798513465733     
 ALPHA AFTER:   0.10783902233474552     
  Cycle:    145 Energy:      -462.570835  Gnorm:      0.261335  CPU:    0.974
 Line minimisation2
 ALPHA BEFORE:   0.10783902233474552     
 ALPHA AFTER:   0.19200925983945272     
  Cycle:    146 Energy:      -462.585775  Gnorm:      0.354057  CPU:    0.983
 Perform trimming
 Line minimisation2
 ALPHA BEFORE:   0.19200925983945272     
 ALPHA AFTER:    5.9342003557138000E-002
  Cycle:    147 Energy:      -462.592524  Gnorm:      0.222283  CPU:    0.993
 Line minimisation2
 ALPHA BEFORE:    5.9342003557138000E-002
 ALPHA AFTER:   0.24479692843780471     
  Cycle:    148 Energy:      -462.606184  Gnorm:      0.387209  CPU:    1.005
 Perform trimming
 Line minimisation2
 ALPHA BEFORE:   0.24479692843780471     
 ALPHA AFTER:   0.18280724573942256     
  Cycle:    149 Energy:      -462.620693  Gnorm:      0.414533  CPU:    1.012
 Line minimisation2
 ALPHA BEFORE:   0.18280724573942256     
 ALPHA AFTER:    5.7474659392371640E-002
  Cycle:    150 Energy:      -462.632084  Gnorm:      0.376665  CPU:    1.020
 Line minimisation2
 ALPHA BEFORE:    5.7474659392371640E-002
 ALPHA AFTER:    6.7867421843378711E-002
  Cycle:    151 Energy:      -462.643126  Gnorm:      0.220200  CPU:    1.028
 Line minimisation2
 ALPHA BEFORE:    6.7867421843378711E-002
 ALPHA AFTER:   0.16861340054531732     
  Cycle:    152 Energy:      -462.652214  Gnorm:      0.314160  CPU:    1.038
 Perform trimming
 Line minimisation2
 ALPHA BEFORE:   0.16861340054531732     
 ALPHA AFTER:    9.3359625501131277E-002
  Cycle:    153 Energy:      -462.659338  Gnorm:      0.279788  CPU:    1.045
 Line minimisation2
 ALPHA BEFORE:    9.3359625501131277E-002
 ALPHA AFTER:   0.10056738532470637     
  Cycle:    154 Energy:      -462.668906  Gnorm:      0.295727  CPU:    1.055
 Perform trimming
 Line minimisation2
 ALPHA BEFORE:   0.10056738532470637     
 ALPHA AFTER:    9.8871690802928514E-002
  Cycle:    155 Energy:      -462.678115  Gnorm:      0.305586  CPU:    1.065
 Line minimisation2
 ALPHA BEFORE:    9.8871690802928514E-002
 ALPHA AFTER:    9.3728392216084422E-002
  Cycle:    156 Energy:      -462.688344  Gnorm:      0.247161  CPU:    1.074
 Line minimisation2
 ALPHA BEFORE:    9.3728392216084422E-002
 ALPHA AFTER:   0.13051245553330332     
  Cycle:    157 Energy:      -462.697512  Gnorm:      0.357323  CPU:    1.084
 Perform trimming
 Line minimisation2
 ALPHA BEFORE:   0.13051245553330332     
 ALPHA AFTER:   0.10098524286221801     
  Cycle:    158 Energy:      -462.707620  Gnorm:      0.294823  CPU:    1.092
 Line minimisation2
 ALPHA BEFORE:   0.10098524286221801     
 ALPHA AFTER:   0.13023639313205534     
  Cycle:    159 Energy:      -462.720491  Gnorm:      0.323941  CPU:    1.102
 Line minimisation2
 ALPHA BEFORE:   0.13023639313205534     
 ALPHA AFTER:    4.2122693511607877E-002
  Cycle:    160 Energy:      -462.725556  Gnorm:      0.221174  CPU:    1.112
 Line minimisation2
 ALPHA BEFORE:    4.2122693511607877E-002
 ALPHA AFTER:    5.9642809567977989E-002
  Cycle:    161 Energy:      -462.729958  Gnorm:      0.163028  CPU:    1.121
 Line minimisation2
 ALPHA BEFORE:    5.9642809567977989E-002
 ALPHA AFTER:   0.20596334100464658     
  Cycle:    162 Energy:      -462.737087  Gnorm:      0.282829  CPU:    1.131
 Perform trimming
 Line minimisation2
 ALPHA BEFORE:   0.20596334100464658     
 ALPHA AFTER:   0.20454802691460675     
  Cycle:    163 Energy:      -462.744004  Gnorm:      0.372520  CPU:    1.139
 Perform trimming
 Line minimisation2
 ALPHA BEFORE:   0.20454802691460675     
 ALPHA AFTER:   0.10234747621402666     
  Cycle:    164 Energy:      -462.755110  Gnorm:      0.255026  CPU:    1.147
 Line minimisation2
 ALPHA BEFORE:   0.10234747621402666     
 ALPHA AFTER:    6.5423677563570926E-002
  Cycle:    165 Energy:      -462.759991  Gnorm:      0.248732  CPU:    1.155
 Line minimisation2
 ALPHA BEFORE:    6.5423677563570926E-002
 ALPHA AFTER:   0.20811319828636443     
  Cycle:    166 Energy:      -462.774614  Gnorm:      0.308761  CPU:    1.165
 Perform trimming
 Line minimisation2
 ALPHA BEFORE:   0.20811319828636443     
 ALPHA AFTER:    5.1734133176776484E-002
  Cycle:    167 Energy:      -462.779973  Gnorm:      0.263877  CPU:    1.174
 Line minimisation2
 ALPHA BEFORE:    5.1734133176776484E-002
 ALPHA AFTER:   0.21062640079340900     
  Cycle:    168 Energy:      -462.796811  Gnorm:      0.411589  CPU:    1.184
 Perform trimming
 Line minimisation2
 ALPHA BEFORE:   0.21062640079340900     
 ALPHA AFTER:   0.15920318118917426     
  Cycle:    169 Energy:      -462.813673  Gnorm:      0.474124  CPU:    1.192
 Line minimisation2
 ALPHA BEFORE:   0.15920318118917426     
 ALPHA AFTER:    3.6441264914303363E-002
  Cycle:    170 Energy:      -462.823130  Gnorm:      0.315828  CPU:    1.201
 Line minimisation2
 ALPHA BEFORE:    3.6441264914303363E-002
 ALPHA AFTER:   0.11046347393163962     
  Cycle:    171 Energy:      -462.836193  Gnorm:      0.183510  CPU:    1.211
 Line minimisation2
 ALPHA BEFORE:   0.11046347393163962     
 ALPHA AFTER:   0.15489198300461335     
  Cycle:    172 Energy:      -462.841979  Gnorm:      0.224585  CPU:    1.221
 Perform trimming
 Line minimisation2
 ALPHA BEFORE:   0.15489198300461335     
 ALPHA AFTER:   0.21408390965005500     
  Cycle:    173 Energy:      -462.852205  Gnorm:      0.229619  CPU:    1.230
 Line minimisation2
 ALPHA BEFORE:   0.21408390965005500     
 ALPHA AFTER:    9.7384682516869991E-002
  Cycle:    174 Energy:      -462.857868  Gnorm:      0.330943  CPU:    1.238
 Perform trimming
 Line minimisation2
 ALPHA BEFORE:    9.7384682516869991E-002
 ALPHA AFTER:   0.17163747676172075     
  Cycle:    175 Energy:      -462.871605  Gnorm:      0.227673  CPU:    1.248
 Line minimisation2
 ALPHA BEFORE:   0.17163747676172075     
 ALPHA AFTER:   0.13014501413162646     
  Cycle:    176 Energy:      -462.879883  Gnorm:      0.246765  CPU:    1.255
 Line minimisation2
 ALPHA BEFORE:   0.13014501413162646     
 ALPHA AFTER:    7.1119414011441714E-002
  Cycle:    177 Energy:      -462.885460  Gnorm:      0.251365  CPU:    1.263
 Line minimisation2
 ALPHA BEFORE:    7.1119414011441714E-002
 ALPHA AFTER:    9.6899376316858812E-002
  Cycle:    178 Energy:      -462.893076  Gnorm:      0.224847  CPU:    1.272
 Line minimisation2
 ALPHA BEFORE:    9.6899376316858812E-002
 ALPHA AFTER:   0.31303472224730572     
  Cycle:    179 Energy:      -462.911404  Gnorm:      0.567573  CPU:    1.282
 Line minimisation2
 ALPHA BEFORE:   0.31303472224730572     
 ALPHA AFTER:    3.1724891578604766E-002
  Cycle:    180 Energy:      -462.923228  Gnorm:      0.251459  CPU:    1.289
 Line minimisation2
 ALPHA BEFORE:    3.1724891578604766E-002
 ALPHA AFTER:   0.10511309337617106     
  Cycle:    181 Energy:      -462.930939  Gnorm:      0.186402  CPU:    1.299
 Line minimisation2
 ALPHA BEFORE:   0.10511309337617106     
 ALPHA AFTER:   0.11471615512576433     
  Cycle:    182 Energy:      -462.935540  Gnorm:      0.148448  CPU:    1.307
 Line minimisation2
 ALPHA BEFORE:   0.11471615512576433     
 ALPHA AFTER:   0.18577731451594889     
  Cycle:    183 Energy:      -462.940239  Gnorm:      0.199248  CPU:    1.316
 Perform trimming
 Line minimisation2
 ALPHA BEFORE:   0.18577731451594889     
 ALPHA AFTER:    9.6911515174245177E-002
  Cycle:    184 Energy:      -462.943802  Gnorm:      0.238172  CPU:    1.324
 Perform trimming
 Line minimisation2
 ALPHA BEFORE:    9.6911515174245177E-002
 ALPHA AFTER:   0.14204651953427014     
  Cycle:    185 Energy:      -462.952838  Gnorm:      0.286764  CPU:    1.334
 Perform trimming
 Line minimisation2
 ALPHA BEFORE:   0.14204651953427014     
 ALPHA AFTER:   0.14816343737253798     
  Cycle:    186 Energy:      -462.963296  Gnorm:      0.352900  CPU:    1.344
 Perform trimming
 Line minimisation2
 ALPHA BEFORE:   0.14816343737253798     
 ALPHA AFTER:   0.14537839044973710     
  Cycle:    187 Energy:      -462.980891  Gnorm:      0.453639  CPU:    1.353
 Perform trimming
 Line minimisation2
 ALPHA BEFORE:   0.14537839044973710     
 ALPHA AFTER:   0.13920576883840774     
  Cycle:    188 Energy:      -463.002258  Gnorm:      0.496543  CPU:    1.361
 Perform trimming
 Line minimisation2
 ALPHA BEFORE:   0.13920576883840774     
 ALPHA AFTER:    7.3295292831188893E-002
  Cycle:    189 Energy:      -463.020798  Gnorm:      0.362978  CPU:    1.369
 Line minimisation2
 ALPHA BEFORE:    7.3295292831188893E-002
 ALPHA AFTER:    4.7020241932307777E-002
  Cycle:    190 Energy:      -463.027929  Gnorm:      0.316487  CPU:    1.377
 Line minimisation2
 ALPHA BEFORE:    4.7020241932307777E-002
 ALPHA AFTER:    9.8433178155510226E-002
  Cycle:    191 Energy:      -463.039265  Gnorm:      0.268571  CPU:    1.387
 Line minimisation2
 ALPHA BEFORE:    9.8433178155510226E-002
 ALPHA AFTER:   0.19568530815331869     
  Cycle:    192 Energy:      -463.055431  Gnorm:      0.276840  CPU:    1.397
 Line minimisation2
 ALPHA BEFORE:   0.19568530815331869     
 ALPHA AFTER:    8.7065500575436605E-002
  Cycle:    193 Energy:      -463.063040  Gnorm:      0.224947  CPU:    1.405
 Line minimisation2
 ALPHA BEFORE:    8.7065500575436605E-002
 ALPHA AFTER:    6.7345421595853203E-002
  Cycle:    194 Energy:      -463.067504  Gnorm:      0.240792  CPU:    1.415
 Line minimisation2
 ALPHA BEFORE:    6.7345421595853203E-002
 ALPHA AFTER:   0.13768750509396085     
  Cycle:    195 Energy:      -463.078022  Gnorm:      0.204517  CPU:    1.426
 Line minimisation2
 ALPHA BEFORE:   0.13768750509396085     
 ALPHA AFTER:    5.3424547272498478E-002
  Cycle:    196 Energy:      -463.080556  Gnorm:      0.151732  CPU:    1.434
 Line minimisation2
 ALPHA BEFORE:    5.3424547272498478E-002
 ALPHA AFTER:    8.2231550972700129E-002
  Cycle:    197 Energy:      -463.082820  Gnorm:      0.137517  CPU:    1.444
 Line minimisation2
 ALPHA BEFORE:    8.2231550972700129E-002
 ALPHA AFTER:   0.15958206953430842     
  Cycle:    198 Energy:      -463.086302  Gnorm:      0.247483  CPU:    1.452
 Perform trimming
 Line minimisation2
 ALPHA BEFORE:   0.15958206953430842     
 ALPHA AFTER:   0.27969900038018497     
  Cycle:    199 Energy:      -463.094760  Gnorm:      0.323980  CPU:    1.462
 Line minimisation2
 ALPHA BEFORE:   0.27969900038018497     
 ALPHA AFTER:    5.7679466356589215E-002
  Cycle:    200 Energy:      -463.101773  Gnorm:      0.215652  CPU:    1.470
 Line minimisation2
 ALPHA BEFORE:    5.7679466356589215E-002
 ALPHA AFTER:    4.1631023410985034E-002
  Cycle:    201 Energy:      -463.104542  Gnorm:      0.114069  CPU:    1.478
 Line minimisation2
 ALPHA BEFORE:    4.1631023410985034E-002
 ALPHA AFTER:   0.16771198303689799     
  Cycle:    202 Energy:      -463.107079  Gnorm:      0.156388  CPU:    1.488
 Perform trimming
 Line minimisation2
 ALPHA BEFORE:   0.16771198303689799     
 ALPHA AFTER:   0.36442246044137439     
  Cycle:    203 Energy:      -463.113670  Gnorm:      0.191842  CPU:    1.498
 Perform trimming
 Line minimisation2
 ALPHA BEFORE:   0.36442246044137439     
 ALPHA AFTER:   0.13664263700892362     
  Cycle:    204 Energy:      -463.118846  Gnorm:      0.279522  CPU:    1.506
 Perform trimming
 Line minimisation2
 ALPHA BEFORE:   0.13664263700892362     
 ALPHA AFTER:   0.10053299996692822     
  Cycle:    205 Energy:      -463.124451  Gnorm:      0.176097  CPU:    1.514
 Line minimisation2
 ALPHA BEFORE:   0.10053299996692822     
 ALPHA AFTER:    9.3552752400054576E-002
  Cycle:    206 Energy:      -463.127775  Gnorm:      0.153364  CPU:    1.524
 Line minimisation2
 ALPHA BEFORE:    9.3552752400054576E-002
 ALPHA AFTER:    8.9388889346008332E-002
  Cycle:    207 Energy:      -463.130165  Gnorm:      0.206024  CPU:    1.533
 Perform trimming
 Line minimisation2
 ALPHA BEFORE:    8.9388889346008332E-002
 ALPHA AFTER:   0.29469444467300415     
  Cycle:    208 Energy:      -463.141719  Gnorm:      0.329246  CPU:    1.543
 Perform trimming
 Line minimisation2
 ALPHA BEFORE:   0.29469444467300415     
 ALPHA AFTER:   0.31151902289110706     
  Cycle:    209 Energy:      -463.163514  Gnorm:      0.514786  CPU:    1.553
 Line minimisation2
 ALPHA BEFORE:   0.31151902289110706     
 ALPHA AFTER:    2.9657044215248909E-002
  Cycle:    210 Energy:      -463.172636  Gnorm:      0.207090  CPU:    1.561
 Line minimisation2
 ALPHA BEFORE:    2.9657044215248909E-002
 ALPHA AFTER:   0.12769641516727689     
  Cycle:    211 Energy:      -463.178649  Gnorm:      0.177108  CPU:    1.571
 Line minimisation2
 ALPHA BEFORE:   0.12769641516727689     
 ALPHA AFTER:    9.6445412756039905E-002
  Cycle:    212 Energy:      -463.182136  Gnorm:      0.106680  CPU:    1.579
 Line minimisation2
 ALPHA BEFORE:    9.6445412756039905E-002
 ALPHA AFTER:   0.21085994571619160     
  Cycle:    213 Energy:      -463.184891  Gnorm:      0.188235  CPU:    1.587
 Perform trimming
 Line minimisation2
 ALPHA BEFORE:   0.21085994571619160     
 ALPHA AFTER:   0.15169276061282019     
  Cycle:    214 Energy:      -463.187627  Gnorm:      0.177799  CPU:    1.594
 Line minimisation2
 ALPHA BEFORE:   0.15169276061282019     
 ALPHA AFTER:    7.5953971019997818E-002
  Cycle:    215 Energy:      -463.190390  Gnorm:      0.164039  CPU:    1.602
 Line minimisation2
 ALPHA BEFORE:    7.5953971019997818E-002
 ALPHA AFTER:    9.9125056890928834E-002
  Cycle:    216 Energy:      -463.193465  Gnorm:      0.193890  CPU:    1.610
 Perform trimming
 Line minimisation2
 ALPHA BEFORE:    9.9125056890928834E-002
 ALPHA AFTER:   0.13954270745298991     
  Cycle:    217 Energy:      -463.199401  Gnorm:      0.171482  CPU:    1.620
 Line minimisation2
 ALPHA BEFORE:   0.13954270745298991     
 ALPHA AFTER:   0.11678241816202557     
  Cycle:    218 Energy:      -463.203365  Gnorm:      0.191301  CPU:    1.627
 Line minimisation2
 ALPHA BEFORE:   0.11678241816202557     
 ALPHA AFTER:    7.1523225508547117E-002
  Cycle:    219 Energy:      -463.206376  Gnorm:      0.212447  CPU:    1.635
 Line minimisation2
 ALPHA BEFORE:    7.1523225508547117E-002
 ALPHA AFTER:    5.1015684003359589E-002
  Cycle:    220 Energy:      -463.209030  Gnorm:      0.165841  CPU:    1.643
 Line minimisation2
 ALPHA BEFORE:    5.1015684003359589E-002
 ALPHA AFTER:    7.3837016844775602E-002
  Cycle:    221 Energy:      -463.211368  Gnorm:      0.118182  CPU:    1.650
 Line minimisation2
 ALPHA BEFORE:    7.3837016844775602E-002
 ALPHA AFTER:   0.17196934474556536     
  Cycle:    222 Energy:      -463.214148  Gnorm:      0.145730  CPU:    1.658
 Perform trimming
 Line minimisation2
 ALPHA BEFORE:   0.17196934474556536     
 ALPHA AFTER:    8.0857457845129516E-002
  Cycle:    223 Energy:      -463.215795  Gnorm:      0.138387  CPU:    1.666
 Line minimisation2
 ALPHA BEFORE:    8.0857457845129516E-002
 ALPHA AFTER:    7.7096135013089429E-002
  Cycle:    224 Energy:      -463.217491  Gnorm:      0.141436  CPU:    1.673
 Line minimisation2
 ALPHA BEFORE:    7.7096135013089429E-002
 ALPHA AFTER:   0.46810098539491868     
  Cycle:    225 Energy:      -463.228261  Gnorm:      0.239072  CPU:    1.683
 Perform trimming
 Line minimisation2
 ALPHA BEFORE:   0.46810098539491868     
 ALPHA AFTER:   0.10507567750810574     
  Cycle:    226 Energy:      -463.231748  Gnorm:      0.183156  CPU:    1.692
 Line minimisation2
 ALPHA BEFORE:   0.10507567750810574     
 ALPHA AFTER:    7.6265699110812907E-002
  Cycle:    227 Energy:      -463.234745  Gnorm:      0.199309  CPU:    1.700
 Line minimisation2
 ALPHA BEFORE:    7.6265699110812907E-002
 ALPHA AFTER:   0.10994481893623467     
  Cycle:    228 Energy:      -463.239900  Gnorm:      0.163410  CPU:    1.710
 Line minimisation2
 ALPHA BEFORE:   0.10994481893623467     
 ALPHA AFTER:   0.30882828012266988     
  Cycle:    229 Energy:      -463.249405  Gnorm:      0.368938  CPU:    1.719
 Line minimisation2
 ALPHA BEFORE:   0.30882828012266988     
 ALPHA AFTER:    3.7783609318967140E-002
  Cycle:    230 Energy:      -463.255331  Gnorm:      0.215272  CPU:    1.727
 Line minimisation2
 ALPHA BEFORE:    3.7783609318967140E-002
 ALPHA AFTER:    6.8473479973788623E-002
  Cycle:    231 Energy:      -463.258826  Gnorm:      0.155172  CPU:    1.739
 Line minimisation2
 ALPHA BEFORE:    6.8473479973788623E-002
 ALPHA AFTER:    8.7368045434032218E-002
  Cycle:    232 Energy:      -463.261253  Gnorm:      0.083515  CPU:    1.746
 Line minimisation2
 ALPHA BEFORE:    8.7368045434032218E-002
 ALPHA AFTER:   0.15652245853517938     
  Cycle:    233 Energy:      -463.262509  Gnorm:      0.178742  CPU:    1.754
 Perform trimming
 Line minimisation2
 ALPHA BEFORE:   0.15652245853517938     
 ALPHA AFTER:   0.57826122926758972     
  Cycle:    234 Energy:      -463.268911  Gnorm:      0.124598  CPU:    1.764
 Line minimisation2
 ALPHA BEFORE:   0.57826122926758972     
 ALPHA AFTER:   0.11662613440282477     
  Cycle:    235 Energy:      -463.270864  Gnorm:      0.112951  CPU:    1.773
 Line minimisation2
 ALPHA BEFORE:   0.11662613440282477     
 ALPHA AFTER:    6.7866093385107948E-002
  Cycle:    236 Energy:      -463.271852  Gnorm:      0.126345  CPU:    1.781
 Line minimisation2
 ALPHA BEFORE:    6.7866093385107948E-002
 ALPHA AFTER:    8.5068076022715627E-002
  Cycle:    237 Energy:      -463.274181  Gnorm:      0.104877  CPU:    1.791
 Line minimisation2
 ALPHA BEFORE:    8.5068076022715627E-002
 ALPHA AFTER:    9.6173939615594950E-002
  Cycle:    238 Energy:      -463.275599  Gnorm:      0.101111  CPU:    1.798
 Line minimisation2
 ALPHA BEFORE:    9.6173939615594950E-002
 ALPHA AFTER:    6.4741538477852925E-002
  Cycle:    239 Energy:      -463.276414  Gnorm:      0.118350  CPU:    1.806
 Line minimisation2
 ALPHA BEFORE:    6.4741538477852925E-002
 ALPHA AFTER:    4.6438968146848676E-002
  Cycle:    240 Energy:      -463.277164  Gnorm:      0.082311  CPU:    1.814
 Line minimisation2
 ALPHA BEFORE:    4.6438968146848676E-002
 ALPHA AFTER:    6.9099895934049804E-002
  Cycle:    241 Energy:      -463.277685  Gnorm:      0.078025  CPU:    1.823
 Line minimisation2
 ALPHA BEFORE:    6.9099895934049804E-002
 ALPHA AFTER:   0.24217305107187617     
  Cycle:    242 Energy:      -463.279211  Gnorm:      0.128573  CPU:    1.833
 Perform trimming
 Line minimisation2
 ALPHA BEFORE:   0.24217305107187617     
 ALPHA AFTER:   0.83150292041185603     
  Cycle:    243 Energy:      -463.287435  Gnorm:      0.221560  CPU:    1.844
 Perform trimming
 Line minimisation2
 ALPHA BEFORE:   0.83150292041185603     
 ALPHA AFTER:   0.10395264687402858     
  Cycle:    244 Energy:      -463.290208  Gnorm:      0.187765  CPU:    1.854
 Line minimisation2
 ALPHA BEFORE:   0.10395264687402858     
 ALPHA AFTER:   0.11177439827870086     
  Cycle:    245 Energy:      -463.294756  Gnorm:      0.231710  CPU:    1.863
 Perform trimming
 Line minimisation2
 ALPHA BEFORE:   0.11177439827870086     
 ALPHA AFTER:   0.16144659387139118     
  Cycle:    246 Energy:      -463.301571  Gnorm:      0.171545  CPU:    1.873
 Line minimisation2
 ALPHA BEFORE:   0.16144659387139118     
 ALPHA AFTER:   0.11085150159554460     
  Cycle:    247 Energy:      -463.305332  Gnorm:      0.116757  CPU:    1.880
 Line minimisation2
 ALPHA BEFORE:   0.11085150159554460     
 ALPHA AFTER:    7.3748597249595510E-002
  Cycle:    248 Energy:      -463.306490  Gnorm:      0.150625  CPU:    1.888
 Perform trimming
 Line minimisation2
 ALPHA BEFORE:    7.3748597249595510E-002
 ALPHA AFTER:   0.24298951385765127     
  Cycle:    249 Energy:      -463.311873  Gnorm:      0.225948  CPU:    1.897
 Line minimisation2
 ALPHA BEFORE:   0.24298951385765127     
 ALPHA AFTER:    5.1997917505854217E-002
  Cycle:    250 Energy:      -463.314764  Gnorm:      0.091727  CPU:    1.907
 Line minimisation2
 ALPHA BEFORE:    5.1997917505854217E-002
 ALPHA AFTER:    5.0673795451595623E-002
  Cycle:    251 Energy:      -463.315257  Gnorm:      0.079743  CPU:    1.915
 Line minimisation2
 ALPHA BEFORE:    5.0673795451595623E-002
 ALPHA AFTER:   0.11538648196508446     
  Cycle:    252 Energy:      -463.316120  Gnorm:      0.075448  CPU:    1.924
 Line minimisation2
 ALPHA BEFORE:   0.11538648196508446     
 ALPHA AFTER:   0.20187124201966100     
  Cycle:    253 Energy:      -463.317443  Gnorm:      0.116635  CPU:    1.932
 Perform trimming
 Line minimisation2
 ALPHA BEFORE:   0.20187124201966100     
 ALPHA AFTER:   0.14663522198659937     
  Cycle:    254 Energy:      -463.318764  Gnorm:      0.143614  CPU:    1.939
 Perform trimming
 Line minimisation2
 ALPHA BEFORE:   0.14663522198659937     
 ALPHA AFTER:   0.11940603985400593     
  Cycle:    255 Energy:      -463.321336  Gnorm:      0.168893  CPU:    1.947
 Perform trimming
 Line minimisation2
 ALPHA BEFORE:   0.11940603985400593     
 ALPHA AFTER:   0.23103997321189121     
  Cycle:    256 Energy:      -463.327445  Gnorm:      0.265919  CPU:    1.956
 Perform trimming
 Line minimisation2
 ALPHA BEFORE:   0.23103997321189121     
 ALPHA AFTER:   0.24708208595999465     
  Cycle:    257 Energy:      -463.336018  Gnorm:      0.319403  CPU:    1.964
 Perform trimming
 Line minimisation2
 ALPHA BEFORE:   0.24708208595999465     
 ALPHA AFTER:   0.11153982546947670     
  Cycle:    258 Energy:      -463.344873  Gnorm:      0.334995  CPU:    1.972
 Line minimisation2
 ALPHA BEFORE:   0.11153982546947670     
 ALPHA AFTER:    9.6565142418729391E-002
  Cycle:    259 Energy:      -463.357195  Gnorm:      0.284841  CPU:    1.980
 Line minimisation2
 ALPHA BEFORE:    9.6565142418729391E-002
 ALPHA AFTER:    3.2535132026772648E-002
  Cycle:    260 Energy:      -463.360313  Gnorm:      0.138348  CPU:    1.989
 Line minimisation2
 ALPHA BEFORE:    3.2535132026772648E-002
 ALPHA AFTER:    7.9657471009320524E-002
  Cycle:    261 Energy:      -463.361826  Gnorm:      0.091563  CPU:    1.999
 Line minimisation2
 ALPHA BEFORE:    7.9657471009320524E-002
 ALPHA AFTER:   0.10478570853633858     
  Cycle:    262 Energy:      -463.362836  Gnorm:      0.104122  CPU:    2.006
 Perform trimming
 Line minimisation2
 ALPHA BEFORE:   0.10478570853633858     
 ALPHA AFTER:    7.1176176046805886E-002
  Cycle:    263 Energy:      -463.363658  Gnorm:      0.090112  CPU:    2.014
 Line minimisation2
 ALPHA BEFORE:    7.1176176046805886E-002
 ALPHA AFTER:    9.0763661825459044E-002
  Cycle:    264 Energy:      -463.364503  Gnorm:      0.077250  CPU:    2.022
 Line minimisation2
 ALPHA BEFORE:    9.0763661825459044E-002
 ALPHA AFTER:   0.19143178414473230     
  Cycle:    265 Energy:      -463.365815  Gnorm:      0.174210  CPU:    2.029
 Perform trimming
 Line minimisation2
 ALPHA BEFORE:   0.19143178414473230     
 ALPHA AFTER:   0.34571589207236614     
  Cycle:    266 Energy:      -463.369202  Gnorm:      0.108789  CPU:    2.038
 Line minimisation2
 ALPHA BEFORE:   0.34571589207236614     
 ALPHA AFTER:   0.10761746977384273     
  Cycle:    267 Energy:      -463.370675  Gnorm:      0.100025  CPU:    2.046
 Line minimisation2
 ALPHA BEFORE:   0.10761746977384273     
 ALPHA AFTER:    8.1947658058499712E-002
  Cycle:    268 Energy:      -463.371621  Gnorm:      0.113328  CPU:    2.053
 Line minimisation2
 ALPHA BEFORE:    8.1947658058499712E-002
 ALPHA AFTER:    5.7216734480027592E-002
  Cycle:    269 Energy:      -463.372962  Gnorm:      0.075170  CPU:    2.061
 Line minimisation2
 ALPHA BEFORE:    5.7216734480027592E-002
 ALPHA AFTER:    2.8608367240013796E-002
  Cycle:    270 Energy:      -463.373457  Gnorm:      0.057933  CPU:    2.070
 Line minimisation2
 ALPHA BEFORE:    2.8608367240013796E-002
 ALPHA AFTER:    4.0750455778988020E-004
  Cycle:    271 Energy:      -463.373459  Gnorm:      0.057834  CPU:    2.080
 Line minimisation2
 ALPHA BEFORE:    4.0750455778988020E-004
 ALPHA AFTER:   0.20586175968126119     
  Cycle:    272 Energy:      -463.373908  Gnorm:      0.069663  CPU:    2.089
 Perform trimming
 Line minimisation2
 ALPHA BEFORE:   0.20586175968126119     
 ALPHA AFTER:   0.13078971414158255     
  Cycle:    273 Energy:      -463.374897  Gnorm:      0.080567  CPU:    2.096
 Line minimisation2
 ALPHA BEFORE:   0.13078971414158255     
 ALPHA AFTER:    9.2052461836306498E-002
  Cycle:    274 Energy:      -463.375736  Gnorm:      0.101833  CPU:    2.104
 Perform trimming
 Line minimisation2
 ALPHA BEFORE:    9.2052461836306498E-002
 ALPHA AFTER:   0.15382765115580008     
  Cycle:    275 Energy:      -463.377001  Gnorm:      0.121596  CPU:    2.118
 Line minimisation2
 ALPHA BEFORE:   0.15382765115580008     
 ALPHA AFTER:    7.6913825577900038E-002
  Cycle:    276 Energy:      -463.378289  Gnorm:      0.126921  CPU:    2.125
 Line minimisation2
 ALPHA BEFORE:    7.6913825577900038E-002
 ALPHA AFTER:    6.1070406490929575E-002
  Cycle:    277 Energy:      -463.379588  Gnorm:      0.067615  CPU:    2.133
 Line minimisation2
 ALPHA BEFORE:    6.1070406490929575E-002
 ALPHA AFTER:   0.17284010058351726     
  Cycle:    278 Energy:      -463.380322  Gnorm:      0.103800  CPU:    2.143
 Perform trimming
 Line minimisation2
 ALPHA BEFORE:   0.17284010058351726     
 ALPHA AFTER:   0.51073410753647841     
  Cycle:    279 Energy:      -463.385248  Gnorm:      0.201278  CPU:    2.156
 Line minimisation2
 ALPHA BEFORE:   0.51073410753647841     
 ALPHA AFTER:    5.9904740352626412E-002
  Cycle:    280 Energy:      -463.388006  Gnorm:      0.153896  CPU:    2.163
 Line minimisation2
 ALPHA BEFORE:    5.9904740352626412E-002
 ALPHA AFTER:    4.0506632829676141E-002
  Cycle:    281 Energy:      -463.389094  Gnorm:      0.059757  CPU:    2.171
 Line minimisation2
 ALPHA BEFORE:    4.0506632829676141E-002
 ALPHA AFTER:   0.24320180267157440     
  Cycle:    282 Energy:      -463.390091  Gnorm:      0.084037  CPU:    2.179
 Perform trimming
 Line minimisation2
 ALPHA BEFORE:   0.24320180267157440     
 ALPHA AFTER:   0.16719945477064649     
  Cycle:    283 Energy:      -463.390953  Gnorm:      0.100188  CPU:    2.186
 Perform trimming
 Line minimisation2
 ALPHA BEFORE:   0.16719945477064649     
 ALPHA AFTER:    5.9369892704584502E-002
  Cycle:    284 Energy:      -463.391651  Gnorm:      0.072347  CPU:    2.197
 Line minimisation2
 ALPHA BEFORE:    5.9369892704584502E-002
 ALPHA AFTER:   0.13341414136446181     
  Cycle:    285 Energy:      -463.392405  Gnorm:      0.093272  CPU:    2.207
 Perform trimming
 Line minimisation2
 ALPHA BEFORE:   0.13341414136446181     
 ALPHA AFTER:   0.15872134870335536     
  Cycle:    286 Energy:      -463.393266  Gnorm:      0.124329  CPU:    2.216
 Perform trimming
 Line minimisation2
 ALPHA BEFORE:   0.15872134870335536     
 ALPHA AFTER:    9.0444226827874702E-002
  Cycle:    287 Energy:      -463.395069  Gnorm:      0.092494  CPU:    2.224
 Line minimisation2
 ALPHA BEFORE:    9.0444226827874702E-002
 ALPHA AFTER:    7.6293581139427427E-002
  Cycle:    288 Energy:      -463.395908  Gnorm:      0.096335  CPU:    2.232
 Line minimisation2
 ALPHA BEFORE:    7.6293581139427427E-002
 ALPHA AFTER:   0.11057107290855461     
  Cycle:    289 Energy:      -463.397089  Gnorm:      0.121894  CPU:    2.239
 Line minimisation2
 ALPHA BEFORE:   0.11057107290855461     
 ALPHA AFTER:    7.5573793095891129E-002
  Cycle:    290 Energy:      -463.398383  Gnorm:      0.058102  CPU:    2.248
 Line minimisation2
 ALPHA BEFORE:    7.5573793095891129E-002
 ALPHA AFTER:    9.0328543538856054E-002
  Cycle:    291 Energy:      -463.398735  Gnorm:      0.062194  CPU:    2.255
 Line minimisation2
 ALPHA BEFORE:    9.0328543538856054E-002
 ALPHA AFTER:    9.1836318435488687E-002
  Cycle:    292 Energy:      -463.399145  Gnorm:      0.086422  CPU:    2.263
 Perform trimming
 Line minimisation2
 ALPHA BEFORE:    9.1836318435488687E-002
 ALPHA AFTER:   0.28209623483800383     
  Cycle:    293 Energy:      -463.400682  Gnorm:      0.089655  CPU:    2.273
 Line minimisation2
 ALPHA BEFORE:   0.28209623483800383     
 ALPHA AFTER:   0.23410649512002457     
  Cycle:    294 Energy:      -463.403026  Gnorm:      0.141086  CPU:    2.283
 Perform trimming
 Line minimisation2
 ALPHA BEFORE:   0.23410649512002457     
 ALPHA AFTER:   0.12718725525896107     
  Cycle:    295 Energy:      -463.404561  Gnorm:      0.145045  CPU:    2.291
 Line minimisation2
 ALPHA BEFORE:   0.12718725525896107     
 ALPHA AFTER:   0.11631964251196063     
  Cycle:    296 Energy:      -463.407208  Gnorm:      0.145516  CPU:    2.299
 Perform trimming
 Line minimisation2
 ALPHA BEFORE:   0.11631964251196063     
 ALPHA AFTER:    6.7341446319380160E-002
  Cycle:    297 Energy:      -463.408808  Gnorm:      0.108331  CPU:    2.306
 Line minimisation2
 ALPHA BEFORE:    6.7341446319380160E-002
 ALPHA AFTER:   0.12460220263150314     
  Cycle:    298 Energy:      -463.411139  Gnorm:      0.130382  CPU:    2.318
 Line minimisation2
 ALPHA BEFORE:   0.12460220263150314     
 ALPHA AFTER:   0.12287427363307508     
  Cycle:    299 Energy:      -463.413933  Gnorm:      0.210435  CPU:    2.326
 Line minimisation2
 ALPHA BEFORE:   0.12287427363307508     
 ALPHA AFTER:    2.9578118745182548E-002
  Cycle:    300 Energy:      -463.415442  Gnorm:      0.078881  CPU:    2.334
 Line minimisation2
 ALPHA BEFORE:    2.9578118745182548E-002
 ALPHA AFTER:   0.10229551764892525     
  Cycle:    301 Energy:      -463.416176  Gnorm:      0.068043  CPU:    2.342
 Line minimisation2
 ALPHA BEFORE:   0.10229551764892525     
 ALPHA AFTER:   0.13387526190967838     
  Cycle:    302 Energy:      -463.416886  Gnorm:      0.104007  CPU:    2.349
 Perform trimming
 Line minimisation2
 ALPHA BEFORE:   0.13387526190967838     
 ALPHA AFTER:    6.6937630954839192E-002
  Cycle:    303 Energy:      -463.417397  Gnorm:      0.061852  CPU:    2.357
 Line minimisation2
 ALPHA BEFORE:    6.6937630954839192E-002
 ALPHA AFTER:    3.3468815477419596E-002
  Cycle:    304 Energy:      -463.417796  Gnorm:      0.044645  CPU:    2.365
 Line minimisation2
 ALPHA BEFORE:    3.3468815477419596E-002
 ALPHA AFTER:   0.21778425802806289     
  Cycle:    305 Energy:      -463.418254  Gnorm:      0.080996  CPU:    2.372
 Perform trimming
 Line minimisation2
 ALPHA BEFORE:   0.21778425802806289     
 ALPHA AFTER:   0.16036985671325102     
  Cycle:    306 Energy:      -463.418731  Gnorm:      0.075373  CPU:    2.380
 Perform trimming
 Line minimisation2
 ALPHA BEFORE:   0.16036985671325102     
 ALPHA AFTER:    9.4874534345231673E-002
  Cycle:    307 Energy:      -463.419333  Gnorm:      0.079771  CPU:    2.388
 Perform trimming
 Line minimisation2
 ALPHA BEFORE:    9.4874534345231673E-002
 ALPHA AFTER:    9.0499245057122410E-002
  Cycle:    308 Energy:      -463.419915  Gnorm:      0.077819  CPU:    2.395
 Line minimisation2
 ALPHA BEFORE:    9.0499245057122410E-002
 ALPHA AFTER:   0.29560540335706947     
  Cycle:    309 Energy:      -463.421996  Gnorm:      0.127474  CPU:    2.405
 Line minimisation2
 ALPHA BEFORE:   0.29560540335706947     
 ALPHA AFTER:    4.6513662885443639E-002
  Cycle:    310 Energy:      -463.423009  Gnorm:      0.070005  CPU:    2.414
 Line minimisation2
 ALPHA BEFORE:    4.6513662885443639E-002
 ALPHA AFTER:    5.0524986033442368E-002
  Cycle:    311 Energy:      -463.423282  Gnorm:      0.047598  CPU:    2.422
 Line minimisation2
 ALPHA BEFORE:    5.0524986033442368E-002
 ALPHA AFTER:   0.19559555899291198     
  Cycle:    312 Energy:      -463.423790  Gnorm:      0.058506  CPU:    2.430
 Perform trimming
 Line minimisation2
 ALPHA BEFORE:   0.19559555899291198     
 ALPHA AFTER:   0.16066561752187725     
  Cycle:    313 Energy:      -463.424299  Gnorm:      0.103421  CPU:    2.437
 Perform trimming
 Line minimisation2
 ALPHA BEFORE:   0.16066561752187725     
 ALPHA AFTER:   0.32830674267792992     
  Cycle:    314 Energy:      -463.426109  Gnorm:      0.161495  CPU:    2.445
 Perform trimming
 Line minimisation2
 ALPHA BEFORE:   0.32830674267792992     
 ALPHA AFTER:   0.20816661982576384     
  Cycle:    315 Energy:      -463.429000  Gnorm:      0.160093  CPU:    2.452
 Perform trimming
 Line minimisation2
 ALPHA BEFORE:   0.20816661982576384     
 ALPHA AFTER:    6.8212770138655648E-002
  Cycle:    316 Energy:      -463.430688  Gnorm:      0.103957  CPU:    2.460
 Line minimisation2
 ALPHA BEFORE:    6.8212770138655648E-002
 ALPHA AFTER:   0.13117066258041468     
  Cycle:    317 Energy:      -463.432317  Gnorm:      0.116399  CPU:    2.468
 Perform trimming
 Line minimisation2
 ALPHA BEFORE:   0.13117066258041468     
 ALPHA AFTER:   0.15886972602012012     
  Cycle:    318 Energy:      -463.434420  Gnorm:      0.221211  CPU:    2.477
 Perform trimming
 Line minimisation2
 ALPHA BEFORE:   0.15886972602012012     
 ALPHA AFTER:   0.34313510991501150     
  Cycle:    319 Energy:      -463.442395  Gnorm:      0.290028  CPU:    2.487
 Line minimisation2
 ALPHA BEFORE:   0.34313510991501150     
 ALPHA AFTER:    4.3213682600558578E-002
  Cycle:    320 Energy:      -463.446719  Gnorm:      0.165429  CPU:    2.495
 Line minimisation2
 ALPHA BEFORE:    4.3213682600558578E-002
 ALPHA AFTER:    6.0964686763734489E-002
  Cycle:    321 Energy:      -463.448615  Gnorm:      0.104730  CPU:    2.503
 Line minimisation2
 ALPHA BEFORE:    6.0964686763734489E-002
 ALPHA AFTER:    8.0066911163310536E-002
  Cycle:    322 Energy:      -463.449620  Gnorm:      0.043938  CPU:    2.511
 Line minimisation2
 ALPHA BEFORE:    8.0066911163310536E-002
 ALPHA AFTER:   0.10740683518037289     
  Cycle:    323 Energy:      -463.449856  Gnorm:      0.068179  CPU:    2.519
 Perform trimming
 Line minimisation2
 ALPHA BEFORE:   0.10740683518037289     
 ALPHA AFTER:   0.24318767295072230     
  Cycle:    324 Energy:      -463.450384  Gnorm:      0.097260  CPU:    2.528
 Perform trimming
 Line minimisation2
 ALPHA BEFORE:   0.24318767295072230     
 ALPHA AFTER:   0.21817705316962466     
  Cycle:    325 Energy:      -463.451667  Gnorm:      0.104648  CPU:    2.537
 Perform trimming
 Line minimisation2
 ALPHA BEFORE:   0.21817705316962466     
 ALPHA AFTER:    8.5103345676994124E-002
  Cycle:    326 Energy:      -463.452501  Gnorm:      0.098953  CPU:    2.545
 Line minimisation2
 ALPHA BEFORE:    8.5103345676994124E-002
 ALPHA AFTER:    8.7218224402816319E-002
  Cycle:    327 Energy:      -463.453485  Gnorm:      0.075399  CPU:    2.553
 Line minimisation2
 ALPHA BEFORE:    8.7218224402816319E-002
 ALPHA AFTER:   0.36832838032220444     
  Cycle:    328 Energy:      -463.455891  Gnorm:      0.172534  CPU:    2.564
 Perform trimming
 Line minimisation2
 ALPHA BEFORE:   0.36832838032220444     
 ALPHA AFTER:   0.29177533278099704     
  Cycle:    329 Energy:      -463.458721  Gnorm:      0.191952  CPU:    2.573
 Line minimisation2
 ALPHA BEFORE:   0.29177533278099704     
 ALPHA AFTER:    4.3411596724669058E-002
  Cycle:    330 Energy:      -463.460580  Gnorm:      0.129693  CPU:    2.581
 Line minimisation2
 ALPHA BEFORE:    4.3411596724669058E-002
 ALPHA AFTER:    8.3058718029034001E-002
  Cycle:    331 Energy:      -463.462191  Gnorm:      0.089910  CPU:    2.592
 Line minimisation2
 ALPHA BEFORE:    8.3058718029034001E-002
 ALPHA AFTER:   0.11103305640183578     
  Cycle:    332 Energy:      -463.463232  Gnorm:      0.075615  CPU:    2.600
 Line minimisation2
 ALPHA BEFORE:   0.11103305640183578     
 ALPHA AFTER:   0.18593428030408699     
  Cycle:    333 Energy:      -463.464463  Gnorm:      0.086670  CPU:    2.608
 Perform trimming
 Line minimisation2
 ALPHA BEFORE:   0.18593428030408699     
 ALPHA AFTER:   0.22834799874993697     
  Cycle:    334 Energy:      -463.466411  Gnorm:      0.143810  CPU:    2.616
 Perform trimming
 Line minimisation2
 ALPHA BEFORE:   0.22834799874993697     
 ALPHA AFTER:    7.4053554187391984E-002
  Cycle:    335 Energy:      -463.467335  Gnorm:      0.053556  CPU:    2.624
 Line minimisation2
 ALPHA BEFORE:    7.4053554187391984E-002
 ALPHA AFTER:   0.14627177001634106     
  Cycle:    336 Energy:      -463.467816  Gnorm:      0.068347  CPU:    2.632
 Perform trimming
 Line minimisation2
 ALPHA BEFORE:   0.14627177001634106     
 ALPHA AFTER:   0.12571598079827573     
  Cycle:    337 Energy:      -463.468307  Gnorm:      0.085654  CPU:    2.640
 Perform trimming
 Line minimisation2
 ALPHA BEFORE:   0.12571598079827573     
 ALPHA AFTER:   0.11064710204730330     
  Cycle:    338 Energy:      -463.469082  Gnorm:      0.082943  CPU:    2.648
 Line minimisation2
 ALPHA BEFORE:   0.11064710204730330     
 ALPHA AFTER:   0.15150255480292141     
  Cycle:    339 Energy:      -463.470279  Gnorm:      0.138088  CPU:    2.655
 Line minimisation2
 ALPHA BEFORE:   0.15150255480292141     
 ALPHA AFTER:    3.2283332463255522E-002
  Cycle:    340 Energy:      -463.470988  Gnorm:      0.070369  CPU:    2.663
 Line minimisation2
 ALPHA BEFORE:    3.2283332463255522E-002
 ALPHA AFTER:    9.4074618335906371E-002
  Cycle:    341 Energy:      -463.471522  Gnorm:      0.059633  CPU:    2.671
 Line minimisation2
 ALPHA BEFORE:    9.4074618335906371E-002
 ALPHA AFTER:   0.16384567226491403     
  Cycle:    342 Energy:      -463.472192  Gnorm:      0.041938  CPU:    2.679
 Line minimisation2
 ALPHA BEFORE:   0.16384567226491403     
 ALPHA AFTER:   0.41888443916834045     
  Cycle:    343 Energy:      -463.473034  Gnorm:      0.080141  CPU:    2.688
 Perform trimming
 Line minimisation2
 ALPHA BEFORE:   0.41888443916834045     
 ALPHA AFTER:   0.34855257976583121     
  Cycle:    344 Energy:      -463.474142  Gnorm:      0.150270  CPU:    2.701
 Perform trimming
 Line minimisation2
 ALPHA BEFORE:   0.34855257976583121     
 ALPHA AFTER:   0.18491724733364409     
  Cycle:    345 Energy:      -463.475948  Gnorm:      0.125569  CPU:    2.709
 Line minimisation2
 ALPHA BEFORE:   0.18491724733364409     
 ALPHA AFTER:    5.8159448454513069E-002
  Cycle:    346 Energy:      -463.477000  Gnorm:      0.079083  CPU:    2.717
 Line minimisation2
 ALPHA BEFORE:    5.8159448454513069E-002
 ALPHA AFTER:   0.15750105814055732     
  Cycle:    347 Energy:      -463.478133  Gnorm:      0.092607  CPU:    2.725
 Line minimisation2
 ALPHA BEFORE:   0.15750105814055732     
 ALPHA AFTER:    7.2560364448451611E-002
  Cycle:    348 Energy:      -463.478857  Gnorm:      0.107102  CPU:    2.732
 Line minimisation2
 ALPHA BEFORE:    7.2560364448451611E-002
 ALPHA AFTER:   0.12519952015966357     
  Cycle:    349 Energy:      -463.480550  Gnorm:      0.124160  CPU:    2.742
 Line minimisation2
 ALPHA BEFORE:   0.12519952015966357     
 ALPHA AFTER:    5.1098742555720132E-002
  Cycle:    350 Energy:      -463.481479  Gnorm:      0.085397  CPU:    2.750
 Line minimisation2
 ALPHA BEFORE:    5.1098742555720132E-002
 ALPHA AFTER:    7.6627795604290644E-002
  Cycle:    351 Energy:      -463.482125  Gnorm:      0.079331  CPU:    2.757
 Line minimisation2
 ALPHA BEFORE:    7.6627795604290644E-002
 ALPHA AFTER:    8.8401197631756745E-002
  Cycle:    352 Energy:      -463.482786  Gnorm:      0.040859  CPU:    2.767
 Line minimisation2
 ALPHA BEFORE:    8.8401197631756745E-002
 ALPHA AFTER:   0.18845744312980117     
  Cycle:    353 Energy:      -463.483149  Gnorm:      0.077125  CPU:    2.774
 Perform trimming
 Line minimisation2
 ALPHA BEFORE:   0.18845744312980117     
 ALPHA AFTER:   0.17672476812872984     
  Cycle:    354 Energy:      -463.483618  Gnorm:      0.069138  CPU:    2.782
 Line minimisation2
 ALPHA BEFORE:   0.17672476812872984     
 ALPHA AFTER:   0.16373859060831006     
  Cycle:    355 Energy:      -463.484518  Gnorm:      0.104882  CPU:    2.789
 Perform trimming
 Line minimisation2
 ALPHA BEFORE:   0.16373859060831006     
 ALPHA AFTER:   0.12491246059775779     
  Cycle:    356 Energy:      -463.485315  Gnorm:      0.083995  CPU:    2.797
 Line minimisation2
 ALPHA BEFORE:   0.12491246059775779     
 ALPHA AFTER:   0.12802089971974781     
  Cycle:    357 Energy:      -463.486329  Gnorm:      0.083776  CPU:    2.806
 Line minimisation2
 ALPHA BEFORE:   0.12802089971974781     
 ALPHA AFTER:    8.0558533026114126E-002
  Cycle:    358 Energy:      -463.486959  Gnorm:      0.092588  CPU:    2.814
 Line minimisation2
 ALPHA BEFORE:    8.0558533026114126E-002
 ALPHA AFTER:    9.0567504396851226E-002
  Cycle:    359 Energy:      -463.487852  Gnorm:      0.091125  CPU:    2.822
 Line minimisation2
 ALPHA BEFORE:    9.0567504396851226E-002
 ALPHA AFTER:    7.2105290610796194E-002
  Cycle:    360 Energy:      -463.488540  Gnorm:      0.063133  CPU:    2.829
 Line minimisation2
 ALPHA BEFORE:    7.2105290610796194E-002
 ALPHA AFTER:    4.8282040002238305E-002
  Cycle:    361 Energy:      -463.488762  Gnorm:      0.045982  CPU:    2.837
 Line minimisation2
 ALPHA BEFORE:    4.8282040002238305E-002
 ALPHA AFTER:   0.10818477437116006     
  Cycle:    362 Energy:      -463.489024  Gnorm:      0.049220  CPU:    2.844
 Line minimisation2
 ALPHA BEFORE:   0.10818477437116006     
 ALPHA AFTER:   0.41148202941038670     
  Cycle:    363 Energy:      -463.490167  Gnorm:      0.101919  CPU:    2.854
 Perform trimming
 Line minimisation2
 ALPHA BEFORE:   0.41148202941038670     
 ALPHA AFTER:   0.23792192461197884     
  Cycle:    364 Energy:      -463.491299  Gnorm:      0.116588  CPU:    2.865
 Perform trimming
 Line minimisation2
 ALPHA BEFORE:   0.23792192461197884     
 ALPHA AFTER:    7.8425533074237205E-002
  Cycle:    365 Energy:      -463.492456  Gnorm:      0.121490  CPU:    2.872
 Line minimisation2
 ALPHA BEFORE:    7.8425533074237205E-002
 ALPHA AFTER:   0.16760580961295690     
  Cycle:    366 Energy:      -463.495350  Gnorm:      0.116113  CPU:    2.882
 Line minimisation2
 ALPHA BEFORE:   0.16760580961295690     
 ALPHA AFTER:    8.8287721764125568E-002
  Cycle:    367 Energy:      -463.496738  Gnorm:      0.102217  CPU:    2.889
 Line minimisation2
 ALPHA BEFORE:    8.8287721764125568E-002
 ALPHA AFTER:    9.7227061269677978E-002
  Cycle:    368 Energy:      -463.497908  Gnorm:      0.136145  CPU:    2.897
 Perform trimming
 Line minimisation2
 ALPHA BEFORE:    9.7227061269677978E-002
 ALPHA AFTER:   0.12502911275936843     
  Cycle:    369 Energy:      -463.500105  Gnorm:      0.150028  CPU:    2.906
 Line minimisation2
 ALPHA BEFORE:   0.12502911275936843     
 ALPHA AFTER:    6.5637885872460611E-002
  Cycle:    370 Energy:      -463.501810  Gnorm:      0.113133  CPU:    2.914
 Line minimisation2
 ALPHA BEFORE:    6.5637885872460611E-002
 ALPHA AFTER:    4.4244084837475120E-002
  Cycle:    371 Energy:      -463.502463  Gnorm:      0.060860  CPU:    2.921
 Line minimisation2
 ALPHA BEFORE:    4.4244084837475120E-002
 ALPHA AFTER:   0.12710324012414712     
  Cycle:    372 Energy:      -463.503005  Gnorm:      0.061975  CPU:    2.929
 Line minimisation2
 ALPHA BEFORE:   0.12710324012414712     
 ALPHA AFTER:    8.7325161722715872E-002
  Cycle:    373 Energy:      -463.503391  Gnorm:      0.055583  CPU:    2.936
 Line minimisation2
 ALPHA BEFORE:    8.7325161722715872E-002
 ALPHA AFTER:    6.2321739412492139E-002
  Cycle:    374 Energy:      -463.503612  Gnorm:      0.052129  CPU:    2.944
 Line minimisation2
 ALPHA BEFORE:    6.2321739412492139E-002
 ALPHA AFTER:   0.50647036665643530     
  Cycle:    375 Energy:      -463.505197  Gnorm:      0.110391  CPU:    2.953
 Perform trimming
 Line minimisation2
 ALPHA BEFORE:   0.50647036665643530     
 ALPHA AFTER:    1.0032351833282176     
  Cycle:    376 Energy:      -463.511791  Gnorm:      0.104170  CPU:    2.964
 Line minimisation2
 ALPHA BEFORE:    1.0032351833282176     
 ALPHA AFTER:   0.25000000000000000     
  Cycle:    377 Energy:      -463.511838  Gnorm:      0.216414  CPU:    2.972
 Perform trimming
 Line minimisation2
 ALPHA BEFORE:   0.25000000000000000     
 ALPHA AFTER:    5.5739545497254239E-002
  Cycle:    378 Energy:      -463.512147  Gnorm:      0.182172  CPU:    2.979
 Line minimisation2
 ALPHA BEFORE:    5.5739545497254239E-002
 ALPHA AFTER:    5.8198443340004839E-002
  Cycle:    379 Energy:      -463.514359  Gnorm:      0.064103  CPU:    2.987
 Line minimisation2
 ALPHA BEFORE:    5.8198443340004839E-002
 ALPHA AFTER:    5.5984165341475114E-002
  Cycle:    380 Energy:      -463.514624  Gnorm:      0.066501  CPU:    2.995
 Line minimisation2
 ALPHA BEFORE:    5.5984165341475114E-002
 ALPHA AFTER:   0.20438181177506740     
  Cycle:    381 Energy:      -463.515664  Gnorm:      0.100433  CPU:    3.003
 Perform trimming
 Line minimisation2
 ALPHA BEFORE:   0.20438181177506740     
 ALPHA AFTER:   0.22062690446444005     
  Cycle:    382 Energy:      -463.517204  Gnorm:      0.111966  CPU:    3.010
 Line minimisation2
 ALPHA BEFORE:   0.22062690446444005     
 ALPHA AFTER:    5.2210907844041872E-002
  Cycle:    383 Energy:      -463.517958  Gnorm:      0.080118  CPU:    3.018
 Line minimisation2
 ALPHA BEFORE:    5.2210907844041872E-002
 ALPHA AFTER:    7.9612132178902478E-002
[...]
  Cycle:    390 Energy:      -463.526407  Gnorm:      0.118342  CPU:    3.074
 Line minimisation2
 ALPHA BEFORE:    5.3732107495765818E-002
 ALPHA AFTER:    4.0569916664867998E-002
  Cycle:    391 Energy:      -463.527060  Gnorm:      0.051158  CPU:    3.082
 Line minimisation2
 ALPHA BEFORE:    4.0569916664867998E-002
 ALPHA AFTER:   0.10541220071263047     
  Cycle:    392 Energy:      -463.527378  Gnorm:      0.049205  CPU:    3.089
 Line minimisation2
 ALPHA BEFORE:   0.10541220071263047     
 ALPHA AFTER:   0.20588868222429785     
  Cycle:    393 Energy:      -463.527971  Gnorm:      0.063094  CPU:    3.099
 Perform trimming
 Line minimisation2
 ALPHA BEFORE:   0.20588868222429785     
 ALPHA AFTER:   0.11656731370362405     
  Cycle:    394 Energy:      -463.528366  Gnorm:      0.091388  CPU:    3.106
 Perform trimming
 Line minimisation2
 ALPHA BEFORE:   0.11656731370362405     
 ALPHA AFTER:   0.26290486483023606     
  Cycle:    395 Energy:      -463.529970  Gnorm:      0.096802  CPU:    3.116
 Perform trimming
 Line minimisation2
 ALPHA BEFORE:   0.26290486483023606     
 ALPHA AFTER:   0.10717393246765189     
  Cycle:    396 Energy:      -463.530978  Gnorm:      0.122070  CPU:    3.123
 Perform trimming
 Line minimisation2
 ALPHA BEFORE:   0.10717393246765189     
 ALPHA AFTER:   0.20483101474401505     
  Cycle:    397 Energy:      -463.533853  Gnorm:      0.118967  CPU:    3.133
 Line minimisation2
 ALPHA BEFORE:   0.20483101474401505     
 ALPHA AFTER:   0.16539298604452093     
  Cycle:    398 Energy:      -463.535893  Gnorm:      0.236971  CPU:    3.140
 Perform trimming
 Line minimisation2
 ALPHA BEFORE:   0.16539298604452093     
 ALPHA AFTER:   0.24945962437393318     
  Cycle:    399 Energy:      -463.540126  Gnorm:      0.224517  CPU:    3.150
 Line minimisation2
 ALPHA BEFORE:   0.24945962437393318     
 ALPHA AFTER:    4.1569490970433651E-002
  Cycle:    400 Energy:      -463.542537  Gnorm:      0.136152  CPU:    3.157
 Line minimisation2
 ALPHA BEFORE:    4.1569490970433651E-002
 ALPHA AFTER:   0.10157305062831651     
  Cycle:    401 Energy:      -463.544699  Gnorm:      0.161399  CPU:    3.165
 Perform trimming
 Line minimisation2
 ALPHA BEFORE:   0.10157305062831651     
 ALPHA AFTER:   0.17217505616888854     
  Cycle:    402 Energy:      -463.549154  Gnorm:      0.119964  CPU:    3.174
 Line minimisation2
 ALPHA BEFORE:   0.17217505616888854     
 ALPHA AFTER:    4.9786514171168687E-002
  Cycle:    403 Energy:      -463.549977  Gnorm:      0.105890  CPU:    3.182
 Line minimisation2
 ALPHA BEFORE:    4.9786514171168687E-002
 ALPHA AFTER:   0.14538876520005453     
  Cycle:    404 Energy:      -463.552010  Gnorm:      0.092163  CPU:    3.191
 Line minimisation2
 ALPHA BEFORE:   0.14538876520005453     
 ALPHA AFTER:   0.15238285687326522     
  Cycle:    405 Energy:      -463.553498  Gnorm:      0.083902  CPU:    3.199
 Line minimisation2
 ALPHA BEFORE:   0.15238285687326522     
 ALPHA AFTER:   0.12104999916457405     
  Cycle:    406 Energy:      -463.554474  Gnorm:      0.063845  CPU:    3.206
 Line minimisation2
 ALPHA BEFORE:   0.12104999916457405     
 ALPHA AFTER:    4.6993430385428317E-002
  Cycle:    407 Energy:      -463.554695  Gnorm:      0.052430  CPU:    3.214
 Line minimisation2
 ALPHA BEFORE:    4.6993430385428317E-002
 ALPHA AFTER:   0.17169579509222940     
  Cycle:    408 Energy:      -463.555239  Gnorm:      0.050178  CPU:    3.221
 Line minimisation2
 ALPHA BEFORE:   0.17169579509222940     
 ALPHA AFTER:   0.16879682888712361     
  Cycle:    409 Energy:      -463.555729  Gnorm:      0.107310  CPU:    3.229
 Line minimisation2
 ALPHA BEFORE:   0.16879682888712361     
 ALPHA AFTER:    3.1891083280357800E-002
  Cycle:    410 Energy:      -463.556152  Gnorm:      0.050488  CPU:    3.236
 Line minimisation2
 ALPHA BEFORE:    3.1891083280357800E-002
 ALPHA AFTER:   0.15409189599835751     
  Cycle:    411 Energy:      -463.556605  Gnorm:      0.051849  CPU:    3.244
 Line minimisation2
 ALPHA BEFORE:   0.15409189599835751     
 ALPHA AFTER:   0.10043157689901970     
  Cycle:    412 Energy:      -463.556916  Gnorm:      0.059496  CPU:    3.251
 Perform trimming
 Line minimisation2
 ALPHA BEFORE:   0.10043157689901970     
 ALPHA AFTER:   0.10093773369100632     
  Cycle:    413 Energy:      -463.557323  Gnorm:      0.085413  CPU:    3.259
 Perform trimming
 Line minimisation2
 ALPHA BEFORE:   0.10093773369100632     
 ALPHA AFTER:   0.29126923143003502     
  Cycle:    414 Energy:      -463.558847  Gnorm:      0.091828  CPU:    3.268
 Line minimisation2
 ALPHA BEFORE:   0.29126923143003502     
 ALPHA AFTER:   0.19221024958814265     
  Cycle:    415 Energy:      -463.560722  Gnorm:      0.103998  CPU:    3.276
 Perform trimming
 Line minimisation2
 ALPHA BEFORE:   0.19221024958814265     
 ALPHA AFTER:    8.8199501996544666E-002
  Cycle:    416 Energy:      -463.561749  Gnorm:      0.118165  CPU:    3.283
 Line minimisation2
 ALPHA BEFORE:    8.8199501996544666E-002
 ALPHA AFTER:    8.9950204130716596E-002
  Cycle:    417 Energy:      -463.563194  Gnorm:      0.128195  CPU:    3.293
 Line minimisation2
 ALPHA BEFORE:    8.9950204130716596E-002
 ALPHA AFTER:   0.24405079084271727     
  Cycle:    418 Energy:      -463.567983  Gnorm:      0.159827  CPU:    3.302
 Perform trimming
 Line minimisation2
 ALPHA BEFORE:   0.24405079084271727     
 ALPHA AFTER:    8.3068666776469499E-002
  Cycle:    419 Energy:      -463.570413  Gnorm:      0.195675  CPU:    3.312
 Line minimisation2
 ALPHA BEFORE:    8.3068666776469499E-002
 ALPHA AFTER:    4.0610803264686322E-002
  Cycle:    420 Energy:      -463.572180  Gnorm:      0.137476  CPU:    3.319
 Line minimisation2
 ALPHA BEFORE:    4.0610803264686322E-002
 ALPHA AFTER:   0.13324017110908906     
  Cycle:    421 Energy:      -463.575040  Gnorm:      0.118208  CPU:    3.328
 Line minimisation2
 ALPHA BEFORE:   0.13324017110908906     
 ALPHA AFTER:    9.8965807243320131E-002
  Cycle:    422 Energy:      -463.576626  Gnorm:      0.131110  CPU:    3.336
 Line minimisation2
 ALPHA BEFORE:    9.8965807243320131E-002
 ALPHA AFTER:    5.7717111169542298E-002
  Cycle:    423 Energy:      -463.577767  Gnorm:      0.087450  CPU:    3.343
 Line minimisation2
 ALPHA BEFORE:    5.7717111169542298E-002
 ALPHA AFTER:    7.5180923396612476E-002
  Cycle:    424 Energy:      -463.578563  Gnorm:      0.056988  CPU:    3.353
 Line minimisation2
 ALPHA BEFORE:    7.5180923396612476E-002
 ALPHA AFTER:   0.28759046169830627     
  Cycle:    425 Energy:      -463.579575  Gnorm:      0.101436  CPU:    3.362
 Perform trimming
 Line minimisation2
 ALPHA BEFORE:   0.28759046169830627     
 ALPHA AFTER:   0.15114875025835689     
  Cycle:    426 Energy:      -463.580312  Gnorm:      0.083913  CPU:    3.370
 Line minimisation2
 ALPHA BEFORE:   0.15114875025835689     
 ALPHA AFTER:    5.8401094636006595E-002
  Cycle:    427 Energy:      -463.580785  Gnorm:      0.060142  CPU:    3.377
 Line minimisation2
 ALPHA BEFORE:    5.8401094636006595E-002
 ALPHA AFTER:    8.3761743296069363E-002
  Cycle:    428 Energy:      -463.581134  Gnorm:      0.054129  CPU:    3.385
 Line minimisation2
 ALPHA BEFORE:    8.3761743296069363E-002
 ALPHA AFTER:   0.10930909358748202     
  Cycle:    429 Energy:      -463.581503  Gnorm:      0.063022  CPU:    3.392
 Line minimisation2
 ALPHA BEFORE:   0.10930909358748202     
 ALPHA AFTER:    5.2933826394595221E-002
  Cycle:    430 Energy:      -463.581746  Gnorm:      0.048983  CPU:    3.400
 Line minimisation2
 ALPHA BEFORE:    5.2933826394595221E-002
 ALPHA AFTER:    6.8143938544286464E-002
  Cycle:    431 Energy:      -463.581934  Gnorm:      0.038783  CPU:    3.407
 Line minimisation2
 ALPHA BEFORE:    6.8143938544286464E-002
 ALPHA AFTER:   0.16833854059169881     
  Cycle:    432 Energy:      -463.582226  Gnorm:      0.060781  CPU:    3.415
 Perform trimming
 Line minimisation2
 ALPHA BEFORE:   0.16833854059169881     
 ALPHA AFTER:   0.43613487450549704     
  Cycle:    433 Energy:      -463.583285  Gnorm:      0.144273  CPU:    3.424
 Perform trimming
 Line minimisation2
 ALPHA BEFORE:   0.43613487450549704     
 ALPHA AFTER:   0.21806743725274852     
  Cycle:    434 Energy:      -463.585134  Gnorm:      0.080953  CPU:    3.437
 Line minimisation2
 ALPHA BEFORE:   0.21806743725274852     
 ALPHA AFTER:    8.3912091109246037E-002
  Cycle:    435 Energy:      -463.585818  Gnorm:      0.096626  CPU:    3.447
 Perform trimming
 Line minimisation2
 ALPHA BEFORE:    8.3912091109246037E-002
 ALPHA AFTER:   0.10932071908073174     
  Cycle:    436 Energy:      -463.586729  Gnorm:      0.058976  CPU:    3.454
 Line minimisation2
 ALPHA BEFORE:   0.10932071908073174     
 ALPHA AFTER:    8.0514955743782077E-002
  Cycle:    437 Energy:      -463.587052  Gnorm:      0.069885  CPU:    3.462
 Perform trimming
 Line minimisation2
 ALPHA BEFORE:    8.0514955743782077E-002
 ALPHA AFTER:    9.9811321080393714E-002
  Cycle:    438 Energy:      -463.587529  Gnorm:      0.059073  CPU:    3.471
 Line minimisation2
 ALPHA BEFORE:    9.9811321080393714E-002
 ALPHA AFTER:   0.13496529804691224     
  Cycle:    439 Energy:      -463.588071  Gnorm:      0.058004  CPU:    3.481
 Line minimisation2
 ALPHA BEFORE:   0.13496529804691224     
 ALPHA AFTER:    5.9151583536305001E-002
  Cycle:    440 Energy:      -463.588301  Gnorm:      0.049500  CPU:    3.489
 Line minimisation2
 ALPHA BEFORE:    5.9151583536305001E-002
 ALPHA AFTER:    7.0291655435091221E-002
  Cycle:    441 Energy:      -463.588499  Gnorm:      0.044688  CPU:    3.497
 Line minimisation2
 ALPHA BEFORE:    7.0291655435091221E-002
 ALPHA AFTER:   0.16677332893970281     
  Cycle:    442 Energy:      -463.588881  Gnorm:      0.049006  CPU:    3.505
 Line minimisation2
 ALPHA BEFORE:   0.16677332893970281     
 ALPHA AFTER:   0.24453373579835275     
  Cycle:    443 Energy:      -463.589576  Gnorm:      0.134065  CPU:    3.515
 Perform trimming
 Line minimisation2
 ALPHA BEFORE:   0.24453373579835275     
 ALPHA AFTER:   0.87226686789917640     
  Cycle:    444 Energy:      -463.594527  Gnorm:      0.130098  CPU:    3.527
 Line minimisation2
 ALPHA BEFORE:   0.87226686789917640     
 ALPHA AFTER:    9.1409206175191826E-002
  Cycle:    445 Energy:      -463.596389  Gnorm:      0.110756  CPU:    3.537
 Line minimisation2
 ALPHA BEFORE:    9.1409206175191826E-002
 ALPHA AFTER:    7.1055763390890370E-002
  Cycle:    446 Energy:      -463.597334  Gnorm:      0.108054  CPU:    3.545
 Line minimisation2
 ALPHA BEFORE:    7.1055763390890370E-002
 ALPHA AFTER:    7.9510757226332232E-002
  Cycle:    447 Energy:      -463.598317  Gnorm:      0.083692  CPU:    3.552
 Line minimisation2
 ALPHA BEFORE:    7.9510757226332232E-002
 ALPHA AFTER:    8.8670681106828644E-002
  Cycle:    448 Energy:      -463.599033  Gnorm:      0.059332  CPU:    3.560
 Line minimisation2
 ALPHA BEFORE:    8.8670681106828644E-002
 ALPHA AFTER:    4.8215489026686868E-002
  Cycle:    449 Energy:      -463.599228  Gnorm:      0.047669  CPU:    3.568
 Line minimisation2
 ALPHA BEFORE:    4.8215489026686868E-002
 ALPHA AFTER:    5.6615788953401872E-002
  Cycle:    450 Energy:      -463.599376  Gnorm:      0.043574  CPU:    3.576
 Line minimisation2
 ALPHA BEFORE:    5.6615788953401872E-002
 ALPHA AFTER:   0.12267876200427671     
  Cycle:    451 Energy:      -463.599645  Gnorm:      0.052697  CPU:    3.584
 Perform trimming
 Line minimisation2
 ALPHA BEFORE:   0.12267876200427671     
 ALPHA AFTER:   0.23578303162979586     
  Cycle:    452 Energy:      -463.600305  Gnorm:      0.071113  CPU:    3.596
 Perform trimming
 Line minimisation2
 ALPHA BEFORE:   0.23578303162979586     
 ALPHA AFTER:   0.19606169340261309     
  Cycle:    453 Energy:      -463.601167  Gnorm:      0.085195  CPU:    3.603
 Perform trimming
 Line minimisation2
 ALPHA BEFORE:   0.19606169340261309     
 ALPHA AFTER:    9.7869549663521849E-002
  Cycle:    454 Energy:      -463.601887  Gnorm:      0.123523  CPU:    3.611
 Perform trimming
 Line minimisation2
 ALPHA BEFORE:    9.7869549663521849E-002
 ALPHA AFTER:   0.58825038230667048     
  Cycle:    455 Energy:      -463.608427  Gnorm:      0.229428  CPU:    3.623
 Perform trimming
 Line minimisation2
 ALPHA BEFORE:   0.58825038230667048     
 ALPHA AFTER:   0.35953505168618954     
  Cycle:    456 Energy:      -463.615446  Gnorm:      0.314669  CPU:    3.631
 Perform trimming
 Line minimisation2
 ALPHA BEFORE:   0.35953505168618954     
 ALPHA AFTER:    8.0163401709527266E-002
  Cycle:    457 Energy:      -463.621078  Gnorm:      0.203585  CPU:    3.639
 Line minimisation2
 ALPHA BEFORE:    8.0163401709527266E-002
 ALPHA AFTER:    8.3828918361622040E-002
  Cycle:    458 Energy:      -463.625086  Gnorm:      0.136762  CPU:    3.647
 Line minimisation2
 ALPHA BEFORE:    8.3828918361622040E-002
 ALPHA AFTER:    9.2684422608424855E-002
  Cycle:    459 Energy:      -463.627067  Gnorm:      0.112759  CPU:    3.657
 Line minimisation2
 ALPHA BEFORE:    9.2684422608424855E-002
 ALPHA AFTER:    5.8070624135786932E-002
  Cycle:    460 Energy:      -463.627917  Gnorm:      0.089569  CPU:    3.664
 Line minimisation2
 ALPHA BEFORE:    5.8070624135786932E-002
 ALPHA AFTER:    6.0090121331518434E-002
  Cycle:    461 Energy:      -463.628472  Gnorm:      0.061465  CPU:    3.672
 Line minimisation2
 ALPHA BEFORE:    6.0090121331518434E-002
 ALPHA AFTER:    5.7255450858889802E-003
  Cycle:    462 Energy:      -463.628520  Gnorm:      0.057419  CPU:    3.686
 Line minimisation2
 ALPHA BEFORE:    5.7255450858889802E-003
 ALPHA AFTER:   -6.3154093901600773E-004
  Cycle:    463 Energy:      -463.628520  Gnorm:      0.057419  CPU:    3.694
 Line minimisation2
 ALPHA BEFORE:    5.7255450858889802E-003
 ALPHA AFTER:   -6.2575857505630110E-004
  Cycle:    464 Energy:      -463.628520  Gnorm:      0.057419  CPU:    3.702
 Line minimisation2
 ALPHA BEFORE:    5.7255450858889802E-003
 ALPHA AFTER:   -6.2575857505630110E-004


  **** Conditions for a minimum have not been satisfied. However ****
  **** no lower point can be found - treat results with caution  ****
  **** unless gradient norm is small (less than 0.1)             ****


  Final energy =    -463.62851967 eV
  Final Gnorm  =       0.05741900

  Components of energy : 

--------------------------------------------------------------------------------
  Interatomic potentials     =          72.43859431 eV    
  Monopole - monopole (real) =        -286.02196605 eV    
  Monopole - monopole (recip)=        -250.04514792 eV    
  Monopole - monopole (total)=        -536.06711397 eV    
--------------------------------------------------------------------------------
  Total lattice energy       =        -463.62851967 eV    
--------------------------------------------------------------------------------
  Total lattice energy       =          -44733.0649 kJ/(mole unit cells)
--------------------------------------------------------------------------------

  Final fractional coordinates of atoms :

--------------------------------------------------------------------------------
   No.  Atomic        x           y          z          Radius
        Label       (Frac)      (Frac)     (Frac)       (Angs) 
--------------------------------------------------------------------------------
     1  O     c     0.000000    0.333330    0.800000    0.000000
     2  O     c     0.085104    0.214814    0.614260    0.000000
     3  O     c     0.520875    0.376990    0.541151    0.000000
     4  O     c     0.071841    0.599554    0.490257    0.000000
     5  O     c     0.155743    0.418705    0.214359    0.000000
     6  O     c     0.290139    0.909617    0.720963    0.000000
     7  O     c     0.815245    0.911744    0.428054    0.000000
     8  O     c     0.415800    0.197816    0.413795    0.000000
     9  O     c     0.003395    0.640837    0.002614    0.000000
    10  Sr    c     0.066038    0.265346    0.088176    0.000000
    11  Sr    c     0.957303    0.916672    0.890657    0.000000
    12  Sr    c     0.209519    0.030025    0.297396    0.000000
    13  Ti    c     0.729480    0.398736    0.457952    0.000000
    14  Ti    c     0.201527    0.189337    0.514058    0.000000
    15  Ti    c     0.186321    0.347570    0.710884    0.000000
--------------------------------------------------------------------------------

  Final Cartesian lattice vectors (Angstroms) :

        5.732710   -0.509307    0.341595
       -0.763960    3.400663   -0.507842
        0.853989   -0.846403   17.443446


  Final cell parameters and derivatives :

--------------------------------------------------------------------------------
       a            5.765419 Angstrom     dE/de1(xx)     0.207603 eV/strain
       b            3.522222 Angstrom     dE/de2(yy)    -0.176222 eV/strain
       c           17.484836 Angstrom     dE/de3(zz)     0.217762 eV/strain
       alpha      101.605486 Degrees      dE/de4(yz)     0.100183 eV/strain
       beta        83.572285 Degrees      dE/de5(xz)    -0.023150 eV/strain
       gamma      108.029039 Degrees      dE/de6(xy)    -0.076041 eV/strain
--------------------------------------------------------------------------------

  Primitive cell volume =           330.258762 Angs**3

  Density of cell =      2.767955 g/cm**3

  Non-primitive cell volume =           330.258762 Angs**3


  Final internal derivatives :

--------------------------------------------------------------------------------
   No.  Atomic          a             b             c           Radius
        Label          (eV)          (eV)          (eV)        (eV/Angs)
--------------------------------------------------------------------------------
      1 O     c       0.000000      0.000000      0.000000      0.000000
      2 O     c      -0.549866      0.045277      1.278530      0.000000
      3 O     c      -0.076157      0.085136     -0.392669      0.000000
      4 O     c      -0.179775      0.184284     -0.818447      0.000000
      5 O     c       0.077289      0.093904      0.427691      0.000000
      6 O     c      -0.002246     -0.444919     -0.206012      0.000000
      7 O     c       0.034741      0.034339     -0.582394      0.000000
      8 O     c      -0.191656      0.233212     -0.627910      0.000000
      9 O     c       0.463435      0.513535      0.159023      0.000000
     10 Sr    c       0.381454      0.384214     -0.674190      0.000000
     11 Sr    c       0.402901      0.095022      0.226044      0.000000
     12 Sr    c      -0.035440     -0.078061     -0.180008      0.000000
     13 Ti    c       0.147568      0.312511      1.242216      0.000000
     14 Ti    c      -0.258465      0.027581      0.111429      0.000000
     15 Ti    c      -0.013118      0.273306      0.140385      0.000000
--------------------------------------------------------------------------------
  Maximum abs         0.549866      0.513535      1.278530      0.000000
--------------------------------------------------------------------------------


  Time to end of optimisation =       3.7100 seconds

 Exiting ------OPTIONS------

  Peak dynamic memory used =       0.55 MB 


  Timing analysis for GULP :

--------------------------------------------------------------------------------
  Task / Subroutine                                          Time (Seconds)
--------------------------------------------------------------------------------
  Calculation of reciprocal space energy and derivatives          0.1878
  Calculation of real space energy and derivatives                3.4978
  Global summation overhead                                       0.0012
--------------------------------------------------------------------------------
  Total CPU time                                                  3.7100
--------------------------------------------------------------------------------


  Job Finished at 16:27.54 24th January    2020                               

