********************************************************************************
*                       GENERAL UTILITY LATTICE PROGRAM                        *
*                                 Julian Gale                                  *
*                       Curtin Institute for Computation                       *
*                           Department of Chemistry                            *
*                    Curtin University, Western Australia                      *
********************************************************************************
* Version = 5.1.1 * Last modified =  25th August 2019                          *
********************************************************************************
*  optimise     - perform optimisation run                                     *
*  conp         - constant pressure calculation                                *
*  nosymmetry   - turn off symmetry after initial structure generation         *
*  full         - generate full unit cell when symmetry is removed             *
*  conjugate    - use conjugate gradients minimiser                            *
********************************************************************************
* ASE calculation                                                              *
********************************************************************************


  Job Started  at 16:25.05 24th January    2020                               

  Number of CPUs =     1


  Total number of configurations input =      1

********************************************************************************
*  Input for Configuration =   1                                               *
********************************************************************************

  Formula = O9Sr3Ti3                                                    

  Number of irreducible atoms/shells =      15


  Total number atoms/shells =      15

  Dimensionality = 3               :  Bulk   



  Cartesian lattice vectors (Angstroms) :

        4.000000    0.000000    0.000000
        0.000000    6.000000    0.000000
        0.000000    0.000000   10.000000

  Cell parameters (Angstroms/Degrees):

  a =       4.0000    alpha =  90.0000
  b =       6.0000    beta  =  90.0000
  c =      10.0000    gamma =  90.0000

  Initial cell volume =         240.000000 Angs**3

  Temperature of configuration =  0.000     K 

  Pressure of configuration =         0.000 GPa 

  Fractional coordinates of asymmetric unit :

--------------------------------------------------------------------------------
   No.  Atomic       x           y          z         Charge      Occupancy
        Label      (Frac)      (Frac)     (Frac)        (e)         (Frac)  
--------------------------------------------------------------------------------
      1 O     c    0.000000    0.333330    0.800000    -2.00000    1.000000    
      2 O     c    0.000000 *  0.000000 *  0.800000 *  -2.00000    1.000000    
      3 O     c    0.500000 *  0.666670 *  0.600000 *  -2.00000    1.000000    
      4 O     c    0.000000 *  0.666670 *  0.600000 *  -2.00000    1.000000    
      5 O     c    0.000000 *  0.333330 *  0.000000 *  -2.00000    1.000000    
      6 O     c    0.000000 *  0.666670 *  0.800000 *  -2.00000    1.000000    
      7 O     c    0.000000 *  0.000000 *  0.200000 *  -2.00000    1.000000    
      8 O     c    0.500000 *  0.333330 *  0.200000 *  -2.00000    1.000000    
      9 O     c    0.000000 *  0.000000 *  0.000000 *  -2.00000    1.000000    
     10 Sr    c    0.750000 *  0.166670 *  0.900000 *   2.00000    1.000000    
     11 Sr    c    0.250000 *  0.166670 *  0.900000 *   2.00000    1.000000    
     12 Sr    c    0.250000 *  0.166670 *  0.100000 *   2.00000    1.000000    
     13 Ti    c    0.750000 *  0.166670 *  0.700000 *   4.00000    1.000000    
     14 Ti    c    0.250000 *  0.166670 *  0.500000 *   4.00000    1.000000    
     15 Ti    c    0.250000 *  0.166670 *  0.700000 *   4.00000    1.000000    
--------------------------------------------------------------------------------



********************************************************************************
*  General input information                                                   *
********************************************************************************

  Species output for all configurations : 

--------------------------------------------------------------------------------
  Species    Type    Atomic    Atomic    Charge       Radii (Angs)     Library
                     Number     Mass       (e)     Cova   Ionic  VDW   Symbol
--------------------------------------------------------------------------------
    O        Core        8      16.00  -2.000000   0.730  0.000  1.360          
    Sr       Core       38      87.62   2.000000   1.120  0.000  1.670          
    Ti       Core       22      47.88   4.000000   1.470  0.000  2.190          
--------------------------------------------------------------------------------


  Lattice summation method               =    Ewald          (3-D)
                                         =    Parry          (2-D)
                                         =    Saunders et al (1-D)
  Accuracy factor for lattice sums       =   12.000


  Time limit = Infinity

  Maximum range for interatomic potentials =    100000.000000 Angstroms

  General interatomic potentials :

--------------------------------------------------------------------------------
Atom  Types   Potential      Parameter       Value         Units   Cutoffs(Ang)
  1     2                                                            Min /  Max 
--------------------------------------------------------------------------------
O    c Sr   c Buckingham    Buckingham A     1952.3900    eV        0.000 10.000
                            Buckingham rho  0.33685000    Ang       
                            Buckingham C     19.220000    eV*Ang^6  
--------------------------------------------------------------------------------
O    c Ti   c Buckingham    Buckingham A     4590.7279    eV        0.000 10.000
                            Buckingham rho  0.26100000    Ang       
                            Buckingham C     0.0000000    eV*Ang^6  
--------------------------------------------------------------------------------
O    c O    c Buckingham    Buckingham A     1388.7700    eV        0.000 10.000
                            Buckingham rho  0.36262000    Ang       
                            Buckingham C     175.00000    eV*Ang^6  
--------------------------------------------------------------------------------
 Calling ------OPTIONS------

********************************************************************************
*  Output for configuration   1                                                *
********************************************************************************


  Components of energy : 

--------------------------------------------------------------------------------
  Interatomic potentials     =         184.55920138 eV    
  Monopole - monopole (real) =          -3.58671899 eV    
  Monopole - monopole (recip)=        -195.13406381 eV    
  Monopole - monopole (total)=        -198.72078279 eV    
--------------------------------------------------------------------------------
  Total lattice energy       =         -14.16158142 eV    
--------------------------------------------------------------------------------
  Total lattice energy       =           -1366.3761 kJ/(mole unit cells)
--------------------------------------------------------------------------------


  Number of variables =       48

  Maximum number of calculations  =          1000
  Maximum Hessian update interval =            10
  Maximum step size               =   1.000000000
  Maximum parameter tolerance     =   0.000010000
  Maximum function  tolerance     =   0.000010000
  Maximum gradient  tolerance     =   0.001000000
  Maximum gradient  component     =   0.010000000

  Cell parameters to be optimised using strains

  Conjugate gradient optimiser to be used

  Lower half triangular hessian to be used

  Start of bulk optimisation :

  Cycle:      0 Energy:       -14.161581  Gnorm:     35.512526  CPU:    0.013
 Perform trimming
 Line minimisation2
 ALPHA BEFORE:    1.0000000000000000     
 ALPHA AFTER:    1.1926492624666976     
  Cycle:      1 Energy:      -223.341431  Gnorm:     16.216605  CPU:    0.026
 Perform trimming
 Line minimisation2
 ALPHA BEFORE:    1.1926492624666976     
 ALPHA AFTER:   0.36040665427291618     
  Cycle:      2 Energy:      -270.015517  Gnorm:     13.397858  CPU:    0.032
 Perform trimming
 Line minimisation2
 ALPHA BEFORE:   0.36040665427291618     
 ALPHA AFTER:   0.29356986221965864     
  Cycle:      3 Energy:      -309.627495  Gnorm:      9.496608  CPU:    0.037
 Line minimisation2
 ALPHA BEFORE:   0.29356986221965864     
 ALPHA AFTER:   0.34777237902988162     
  Cycle:      4 Energy:      -345.297916  Gnorm:      9.880237  CPU:    0.042
 Perform trimming
 Line minimisation2
 ALPHA BEFORE:   0.34777237902988162     
 ALPHA AFTER:   0.21543406541964863     
  Cycle:      5 Energy:      -369.897676  Gnorm:      9.672900  CPU:    0.045
 Line minimisation2
 ALPHA BEFORE:   0.21543406541964863     
 ALPHA AFTER:   0.19116576653800693     
  Cycle:      6 Energy:      -395.422421  Gnorm:      7.898619  CPU:    0.049
 Line minimisation2
 ALPHA BEFORE:   0.19116576653800693     
 ALPHA AFTER:    9.3570447259821679E-002
  Cycle:      7 Energy:      -402.415464  Gnorm:      6.140776  CPU:    0.052
 Line minimisation2
 ALPHA BEFORE:    9.3570447259821679E-002
 ALPHA AFTER:   0.14264307640420076     
  Cycle:      8 Energy:      -410.278110  Gnorm:      5.288080  CPU:    0.056
 Line minimisation2
 ALPHA BEFORE:   0.14264307640420076     
 ALPHA AFTER:   0.22131250039296518     
  Cycle:      9 Energy:      -418.065762  Gnorm:      6.028520  CPU:    0.060
 Line minimisation2
 ALPHA BEFORE:   0.22131250039296518     
 ALPHA AFTER:    6.4518228725113300E-002
  Cycle:     10 Energy:      -420.741959  Gnorm:      4.049566  CPU:    0.064
 Line minimisation2
 ALPHA BEFORE:    6.4518228725113300E-002
 ALPHA AFTER:   0.20265357779691687     
  Cycle:     11 Energy:      -424.567932  Gnorm:      5.039439  CPU:    0.067
 Perform trimming
 Line minimisation2
 ALPHA BEFORE:   0.20265357779691687     
 ALPHA AFTER:   0.10132678889845843     
  Cycle:     12 Energy:      -427.606712  Gnorm:      3.829345  CPU:    0.070
 Line minimisation2
 ALPHA BEFORE:   0.10132678889845843     
 ALPHA AFTER:   0.24294845639939444     
  Cycle:     13 Energy:      -432.012956  Gnorm:      4.997096  CPU:    0.073
 Perform trimming
 Line minimisation2
 ALPHA BEFORE:   0.24294845639939444     
 ALPHA AFTER:    7.8914250085566642E-002
  Cycle:     14 Energy:      -433.701833  Gnorm:      3.202397  CPU:    0.077
 Line minimisation2
 ALPHA BEFORE:    7.8914250085566642E-002
 ALPHA AFTER:   0.19227278937518771     
  Cycle:     15 Energy:      -435.957154  Gnorm:      2.899862  CPU:    0.080
 Line minimisation2
 ALPHA BEFORE:   0.19227278937518771     
 ALPHA AFTER:    9.9089814277842303E-002
  Cycle:     16 Energy:      -436.907910  Gnorm:      3.606687  CPU:    0.084
 Perform trimming
 Line minimisation2
 ALPHA BEFORE:    9.9089814277842303E-002
 ALPHA AFTER:   0.11285511510262475     
  Cycle:     17 Energy:      -438.389079  Gnorm:      3.526414  CPU:    0.087
 Line minimisation2
 ALPHA BEFORE:   0.11285511510262475     
 ALPHA AFTER:   0.18671349148423541     
  Cycle:     18 Energy:      -441.109738  Gnorm:      4.781822  CPU:    0.091
 Perform trimming
 Line minimisation2
 ALPHA BEFORE:   0.18671349148423541     
 ALPHA AFTER:   0.11731914383922920     
  Cycle:     19 Energy:      -443.291682  Gnorm:      3.108356  CPU:    0.093
 Line minimisation2
 ALPHA BEFORE:   0.11731914383922920     
 ALPHA AFTER:    9.2589798594091000E-002
  Cycle:     20 Energy:      -444.313596  Gnorm:      2.866159  CPU:    0.096
 Line minimisation2
 ALPHA BEFORE:    9.2589798594091000E-002
 ALPHA AFTER:    5.5784604404408529E-002
  Cycle:     21 Energy:      -444.844709  Gnorm:      1.550147  CPU:    0.099
 Line minimisation2
 ALPHA BEFORE:    5.5784604404408529E-002
 ALPHA AFTER:   0.16884591922567141     
  Cycle:     22 Energy:      -445.315774  Gnorm:      1.961431  CPU:    0.103
 Perform trimming
 Line minimisation2
 ALPHA BEFORE:   0.16884591922567141     
 ALPHA AFTER:   0.13881160266513651     
  Cycle:     23 Energy:      -445.788696  Gnorm:      1.655473  CPU:    0.106
 Line minimisation2
 ALPHA BEFORE:   0.13881160266513651     
 ALPHA AFTER:   0.23425359421211331     
  Cycle:     24 Energy:      -446.519770  Gnorm:      3.019492  CPU:    0.110
 Perform trimming
 Line minimisation2
 ALPHA BEFORE:   0.23425359421211331     
 ALPHA AFTER:   0.15016159247701216     
  Cycle:     25 Energy:      -447.139597  Gnorm:      2.056153  CPU:    0.113
 Line minimisation2
 ALPHA BEFORE:   0.15016159247701216     
 ALPHA AFTER:   0.13186753946012428     
  Cycle:     26 Energy:      -447.791338  Gnorm:      1.798518  CPU:    0.116
 Line minimisation2
 ALPHA BEFORE:   0.13186753946012428     
 ALPHA AFTER:    9.8305230452080755E-002
  Cycle:     27 Energy:      -448.157445  Gnorm:      1.669775  CPU:    0.119
 Line minimisation2
 ALPHA BEFORE:    9.8305230452080755E-002
 ALPHA AFTER:   0.17771745313870771     
  Cycle:     28 Energy:      -448.735348  Gnorm:      1.731287  CPU:    0.123
 Line minimisation2
 ALPHA BEFORE:   0.17771745313870771     
 ALPHA AFTER:    6.7514969256316601E-002
  Cycle:     29 Energy:      -448.960455  Gnorm:      1.761383  CPU:    0.127
 Line minimisation2
 ALPHA BEFORE:    6.7514969256316601E-002
 ALPHA AFTER:    4.9324589314051447E-002
  Cycle:     30 Energy:      -449.136625  Gnorm:      1.125252  CPU:    0.132
 Line minimisation2
 ALPHA BEFORE:    4.9324589314051447E-002
 ALPHA AFTER:    8.9832550222218074E-002
  Cycle:     31 Energy:      -449.266577  Gnorm:      0.900559  CPU:    0.138
 Line minimisation2
 ALPHA BEFORE:    8.9832550222218074E-002
 ALPHA AFTER:   0.15049352826425966     
  Cycle:     32 Energy:      -449.407739  Gnorm:      1.235800  CPU:    0.143
 Perform trimming
 Line minimisation2
 ALPHA BEFORE:   0.15049352826425966     
 ALPHA AFTER:   0.15894838239634895     
  Cycle:     33 Energy:      -449.604815  Gnorm:      1.111632  CPU:    0.147
 Line minimisation2
 ALPHA BEFORE:   0.15894838239634895     
 ALPHA AFTER:   0.18676644516070431     
  Cycle:     34 Energy:      -449.879683  Gnorm:      1.957182  CPU:    0.152
 Perform trimming
 Line minimisation2
 ALPHA BEFORE:   0.18676644516070431     
 ALPHA AFTER:   0.15277256229906475     
  Cycle:     35 Energy:      -450.156846  Gnorm:      1.391468  CPU:    0.156
 Line minimisation2
 ALPHA BEFORE:   0.15277256229906475     
 ALPHA AFTER:   0.21510185815120741     
  Cycle:     36 Energy:      -450.636318  Gnorm:      1.704052  CPU:    0.161
 Perform trimming
 Line minimisation2
 ALPHA BEFORE:   0.21510185815120741     
 ALPHA AFTER:   0.10001181507668433     
  Cycle:     37 Energy:      -450.871686  Gnorm:      1.606899  CPU:    0.164
 Line minimisation2
 ALPHA BEFORE:   0.10001181507668433     
 ALPHA AFTER:    9.9081710183636706E-002
  Cycle:     38 Energy:      -451.170257  Gnorm:      1.306518  CPU:    0.169
 Line minimisation2
 ALPHA BEFORE:    9.9081710183636706E-002
 ALPHA AFTER:   0.12875707626107291     
  Cycle:     39 Energy:      -451.427737  Gnorm:      1.704242  CPU:    0.174
 Line minimisation2
 ALPHA BEFORE:   0.12875707626107291     
 ALPHA AFTER:    4.3736404888187676E-002
  Cycle:     40 Energy:      -451.574877  Gnorm:      0.985211  CPU:    0.178
 Line minimisation2
 ALPHA BEFORE:    4.3736404888187676E-002
 ALPHA AFTER:    5.9458490816743606E-002
  Cycle:     41 Energy:      -451.642091  Gnorm:      0.709074  CPU:    0.183
 Line minimisation2
 ALPHA BEFORE:    5.9458490816743606E-002
 ALPHA AFTER:   0.17872218318273417     
  Cycle:     42 Energy:      -451.747652  Gnorm:      1.297980  CPU:    0.187
 Perform trimming
 Line minimisation2
 ALPHA BEFORE:   0.17872218318273417     
 ALPHA AFTER:   0.38374793492610404     
  Cycle:     43 Energy:      -452.064201  Gnorm:      1.217696  CPU:    0.192
 Line minimisation2
 ALPHA BEFORE:   0.38374793492610404     
 ALPHA AFTER:    8.8919072018242160E-002
  Cycle:     44 Energy:      -452.217934  Gnorm:      1.665976  CPU:    0.196
 Perform trimming
 Line minimisation2
 ALPHA BEFORE:    8.8919072018242160E-002
 ALPHA AFTER:   0.19473054924637193     
  Cycle:     45 Energy:      -452.643150  Gnorm:      1.679040  CPU:    0.201
 Line minimisation2
 ALPHA BEFORE:   0.19473054924637193     
 ALPHA AFTER:   0.16282824432284795     
  Cycle:     46 Energy:      -453.177577  Gnorm:      2.039769  CPU:    0.205
 Perform trimming
 Line minimisation2
 ALPHA BEFORE:   0.16282824432284795     
 ALPHA AFTER:    6.7507324392810680E-002
  Cycle:     47 Energy:      -453.446830  Gnorm:      2.034869  CPU:    0.209
 Line minimisation2
 ALPHA BEFORE:    6.7507324392810680E-002
 ALPHA AFTER:   0.12303630241960027     
  Cycle:     48 Energy:      -454.040425  Gnorm:      1.627732  CPU:    0.213
 Line minimisation2
 ALPHA BEFORE:   0.12303630241960027     
 ALPHA AFTER:   0.47061567056678238     
  Cycle:     49 Energy:      -455.652542  Gnorm:      3.057628  CPU:    0.219
 Line minimisation2
 ALPHA BEFORE:   0.47061567056678238     
 ALPHA AFTER:    6.2267954309075856E-002
  Cycle:     50 Energy:      -456.326862  Gnorm:      1.734010  CPU:    0.224
 Line minimisation2
 ALPHA BEFORE:    6.2267954309075856E-002
 ALPHA AFTER:    5.0584896000390782E-002
  Cycle:     51 Energy:      -456.502641  Gnorm:      1.198659  CPU:    0.227
 Line minimisation2
 ALPHA BEFORE:    5.0584896000390782E-002
 ALPHA AFTER:    7.9653919545496887E-002
  Cycle:     52 Energy:      -456.634962  Gnorm:      0.974340  CPU:    0.232
 Line minimisation2
 ALPHA BEFORE:    7.9653919545496887E-002
 ALPHA AFTER:    6.8723308414267242E-002
  Cycle:     53 Energy:      -456.708603  Gnorm:      0.900500  CPU:    0.236
 Line minimisation2
 ALPHA BEFORE:    6.8723308414267242E-002
 ALPHA AFTER:   0.18989719937692845     
  Cycle:     54 Energy:      -456.881192  Gnorm:      0.787943  CPU:    0.241
 Line minimisation2
 ALPHA BEFORE:   0.18989719937692845     
 ALPHA AFTER:   0.12325887757696727     
  Cycle:     55 Energy:      -456.971187  Gnorm:      1.425171  CPU:    0.244
 Perform trimming
 Line minimisation2
 ALPHA BEFORE:   0.12325887757696727     
 ALPHA AFTER:   0.21388846914466478     
  Cycle:     56 Energy:      -457.186002  Gnorm:      1.288377  CPU:    0.250
 Line minimisation2
 ALPHA BEFORE:   0.21388846914466478     
 ALPHA AFTER:    8.3517011204729333E-002
  Cycle:     57 Energy:      -457.342768  Gnorm:      1.394048  CPU:    0.255
 Line minimisation2
 ALPHA BEFORE:    8.3517011204729333E-002
 ALPHA AFTER:    8.4485582110079935E-002
  Cycle:     58 Energy:      -457.532100  Gnorm:      0.917729  CPU:    0.261
 Line minimisation2
 ALPHA BEFORE:    8.4485582110079935E-002
 ALPHA AFTER:   0.12247517059140296     
  Cycle:     59 Energy:      -457.650683  Gnorm:      1.078777  CPU:    0.268
 Line minimisation2
 ALPHA BEFORE:   0.12247517059140296     
 ALPHA AFTER:    3.5298378883895060E-002
  Cycle:     60 Energy:      -457.698122  Gnorm:      0.661387  CPU:    0.274
 Line minimisation2
 ALPHA BEFORE:    3.5298378883895060E-002
 ALPHA AFTER:    9.0504724964910480E-002
  Cycle:     61 Energy:      -457.743151  Gnorm:      0.554965  CPU:    0.280
 Line minimisation2
 ALPHA BEFORE:    9.0504724964910480E-002
 ALPHA AFTER:   0.12088178377334487     
  Cycle:     62 Energy:      -457.786490  Gnorm:      0.810086  CPU:    0.287
 Perform trimming
 Line minimisation2
 ALPHA BEFORE:   0.12088178377334487     
 ALPHA AFTER:   0.23023349296043866     
  Cycle:     63 Energy:      -457.894294  Gnorm:      1.121000  CPU:    0.293
 Perform trimming
 Line minimisation2
 ALPHA BEFORE:   0.23023349296043866     
 ALPHA AFTER:   0.33993355967522915     
  Cycle:     64 Energy:      -458.248541  Gnorm:      1.677284  CPU:    0.299
 Perform trimming
 Line minimisation2
 ALPHA BEFORE:   0.33993355967522915     
 ALPHA AFTER:   0.16663574980378151     
  Cycle:     65 Energy:      -458.499522  Gnorm:      1.848479  CPU:    0.304
 Perform trimming
 Line minimisation2
 ALPHA BEFORE:   0.16663574980378151     
 ALPHA AFTER:    7.2824363003752057E-002
  Cycle:     66 Energy:      -458.767801  Gnorm:      1.435822  CPU:    0.310
 Line minimisation2
 ALPHA BEFORE:    7.2824363003752057E-002
 ALPHA AFTER:    9.4959388948737483E-002
  Cycle:     67 Energy:      -458.991033  Gnorm:      1.713719  CPU:    0.316
 Perform trimming
 Line minimisation2
 ALPHA BEFORE:    9.4959388948737483E-002
 ALPHA AFTER:   0.11542145267732039     
  Cycle:     68 Energy:      -459.368724  Gnorm:      2.321448  CPU:    0.322
 Perform trimming
 Line minimisation2
 ALPHA BEFORE:   0.11542145267732039     
 ALPHA AFTER:    9.0116851419309141E-002
  Cycle:     69 Energy:      -459.816458  Gnorm:      2.306224  CPU:    0.328
 Line minimisation2
 ALPHA BEFORE:    9.0116851419309141E-002
 ALPHA AFTER:    4.0958110794224616E-002
  Cycle:     70 Energy:      -460.066387  Gnorm:      1.398906  CPU:    0.333
 Line minimisation2
 ALPHA BEFORE:    4.0958110794224616E-002
 ALPHA AFTER:    7.0954363063122167E-002
  Cycle:     71 Energy:      -460.226654  Gnorm:      0.843231  CPU:    0.339
 Line minimisation2
 ALPHA BEFORE:    7.0954363063122167E-002
 ALPHA AFTER:   0.10967331818190691     
  Cycle:     72 Energy:      -460.316429  Gnorm:      0.871612  CPU:    0.346
 Line minimisation2
 ALPHA BEFORE:   0.10967331818190691     
 ALPHA AFTER:    8.2614791813977156E-002
  Cycle:     73 Energy:      -460.388023  Gnorm:      0.988127  CPU:    0.351
 Line minimisation2
 ALPHA BEFORE:    8.2614791813977156E-002
 ALPHA AFTER:   0.11072581770647934     
  Cycle:     74 Energy:      -460.509743  Gnorm:      0.700351  CPU:    0.357
 Line minimisation2
 ALPHA BEFORE:   0.11072581770647934     
 ALPHA AFTER:   0.10513209737345676     
  Cycle:     75 Energy:      -460.568791  Gnorm:      1.096004  CPU:    0.364
 Perform trimming
 Line minimisation2
 ALPHA BEFORE:   0.10513209737345676     
 ALPHA AFTER:   0.17341454187839359     
  Cycle:     76 Energy:      -460.705069  Gnorm:      0.826861  CPU:    0.370
 Line minimisation2
 ALPHA BEFORE:   0.17341454187839359     
 ALPHA AFTER:   0.18852476714341129     
  Cycle:     77 Energy:      -460.850405  Gnorm:      0.773801  CPU:    0.377
 Line minimisation2
 ALPHA BEFORE:   0.18852476714341129     
 ALPHA AFTER:    8.9355342730071327E-002
  Cycle:     78 Energy:      -460.909435  Gnorm:      0.960648  CPU:    0.382
 Perform trimming
 Line minimisation2
 ALPHA BEFORE:    8.9355342730071327E-002
 ALPHA AFTER:    8.5700054344180862E-002
  Cycle:     79 Energy:      -460.994495  Gnorm:      0.922562  CPU:    0.388
 Line minimisation2
 ALPHA BEFORE:    8.5700054344180862E-002
 ALPHA AFTER:    4.9443734999827814E-002
  Cycle:     80 Energy:      -461.042864  Gnorm:      0.561927  CPU:    0.394
 Line minimisation2
 ALPHA BEFORE:    4.9443734999827814E-002
 ALPHA AFTER:    5.6391564460278237E-002
  Cycle:     81 Energy:      -461.063076  Gnorm:      0.472087  CPU:    0.400
 Line minimisation2
 ALPHA BEFORE:    5.6391564460278237E-002
 ALPHA AFTER:   0.16417392712424328     
  Cycle:     82 Energy:      -461.104592  Gnorm:      0.488580  CPU:    0.407
 Line minimisation2
 ALPHA BEFORE:   0.16417392712424328     
 ALPHA AFTER:   0.22550826610978858     
  Cycle:     83 Energy:      -461.166036  Gnorm:      0.777107  CPU:    0.413
 Perform trimming
 Line minimisation2
 ALPHA BEFORE:   0.22550826610978858     
 ALPHA AFTER:    8.5883032967354278E-002
  Cycle:     84 Energy:      -461.199171  Gnorm:      0.462682  CPU:    0.418
 Line minimisation2
 ALPHA BEFORE:    8.5883032967354278E-002
 ALPHA AFTER:   0.16950435722621279     
  Cycle:     85 Energy:      -461.241027  Gnorm:      0.693485  CPU:    0.425
 Perform trimming
 Line minimisation2
 ALPHA BEFORE:   0.16950435722621279     
 ALPHA AFTER:   0.12730835950033495     
  Cycle:     86 Energy:      -461.280078  Gnorm:      0.614583  CPU:    0.430
 Line minimisation2
 ALPHA BEFORE:   0.12730835950033495     
 ALPHA AFTER:   0.10241306024301920     
  Cycle:     87 Energy:      -461.324914  Gnorm:      0.565866  CPU:    0.435
 Line minimisation2
 ALPHA BEFORE:   0.10241306024301920     
 ALPHA AFTER:    6.5207498200289829E-002
  Cycle:     88 Energy:      -461.349283  Gnorm:      0.499951  CPU:    0.441
 Line minimisation2
 ALPHA BEFORE:    6.5207498200289829E-002
 ALPHA AFTER:   0.19230857307316918     
  Cycle:     89 Energy:      -461.403337  Gnorm:      0.692345  CPU:    0.447
 Line minimisation2
 ALPHA BEFORE:   0.19230857307316918     
 ALPHA AFTER:    6.8846093235568936E-002
  Cycle:     90 Energy:      -461.441221  Gnorm:      0.358248  CPU:    0.452
 Line minimisation2
 ALPHA BEFORE:    6.8846093235568936E-002
 ALPHA AFTER:    7.7755097814527885E-002
  Cycle:     91 Energy:      -461.452390  Gnorm:      0.379693  CPU:    0.459
 Line minimisation2
 ALPHA BEFORE:    7.7755097814527885E-002
 ALPHA AFTER:    9.2467416863849336E-002
  Cycle:     92 Energy:      -461.467635  Gnorm:      0.344548  CPU:    0.465
 Line minimisation2
 ALPHA BEFORE:    9.2467416863849336E-002
 ALPHA AFTER:   0.17765712944700454     
  Cycle:     93 Energy:      -461.491552  Gnorm:      0.454695  CPU:    0.472
 Perform trimming
 Line minimisation2
 ALPHA BEFORE:   0.17765712944700454     
 ALPHA AFTER:    7.4267046808289328E-002
  Cycle:     94 Energy:      -461.505311  Gnorm:      0.418598  CPU:    0.477
 Line minimisation2
 ALPHA BEFORE:    7.4267046808289328E-002
 ALPHA AFTER:   0.16888360176973363     
  Cycle:     95 Energy:      -461.538925  Gnorm:      0.560665  CPU:    0.483
 Perform trimming
 Line minimisation2
 ALPHA BEFORE:   0.16888360176973363     
 ALPHA AFTER:   0.20753220581872103     
  Cycle:     96 Energy:      -461.587807  Gnorm:      0.826462  CPU:    0.491
 Perform trimming
 Line minimisation2
 ALPHA BEFORE:   0.20753220581872103     
 ALPHA AFTER:   0.13643704963814207     
  Cycle:     97 Energy:      -461.658429  Gnorm:      0.846322  CPU:    0.498
 Line minimisation2
 ALPHA BEFORE:   0.13643704963814207     
 ALPHA AFTER:    7.4034495934043099E-002
  Cycle:     98 Energy:      -461.719329  Gnorm:      0.713499  CPU:    0.505
 Line minimisation2
 ALPHA BEFORE:    7.4034495934043099E-002
 ALPHA AFTER:    8.7575040566677212E-002
  Cycle:     99 Energy:      -461.770903  Gnorm:      0.547905  CPU:    0.515
 Line minimisation2
 ALPHA BEFORE:    8.7575040566677212E-002
 ALPHA AFTER:    6.8357568392340889E-002
  Cycle:    100 Energy:      -461.794470  Gnorm:      0.514118  CPU:    0.522
 Line minimisation2
 ALPHA BEFORE:    6.8357568392340889E-002
 ALPHA AFTER:    6.6855769548987865E-002
  Cycle:    101 Energy:      -461.814732  Gnorm:      0.322171  CPU:    0.530
 Line minimisation2
 ALPHA BEFORE:    6.6855769548987865E-002
 ALPHA AFTER:   0.24214097992466238     
  Cycle:    102 Energy:      -461.843513  Gnorm:      0.457985  CPU:    0.539
 Perform trimming
 Line minimisation2
 ALPHA BEFORE:   0.24214097992466238     
 ALPHA AFTER:   0.13858184956648070     
  Cycle:    103 Energy:      -461.864909  Gnorm:      0.480896  CPU:    0.547
 Line minimisation2
 ALPHA BEFORE:   0.13858184956648070     
 ALPHA AFTER:    5.1035563221953094E-002
  Cycle:    104 Energy:      -461.878434  Gnorm:      0.326504  CPU:    0.554
 Line minimisation2
 ALPHA BEFORE:    5.1035563221953094E-002
 ALPHA AFTER:   0.13803107035565099     
  Cycle:    105 Energy:      -461.895073  Gnorm:      0.289993  CPU:    0.563
 Line minimisation2
 ALPHA BEFORE:   0.13803107035565099     
 ALPHA AFTER:   0.20342993160676823     
  Cycle:    106 Energy:      -461.914888  Gnorm:      0.405714  CPU:    0.573
 Perform trimming
 Line minimisation2
 ALPHA BEFORE:   0.20342993160676823     
 ALPHA AFTER:   0.10392030478049076     
  Cycle:    107 Energy:      -461.928755  Gnorm:      0.352625  CPU:    0.580
 Line minimisation2
 ALPHA BEFORE:   0.10392030478049076     
 ALPHA AFTER:    7.6026319498199532E-002
  Cycle:    108 Energy:      -461.939322  Gnorm:      0.338469  CPU:    0.588
 Line minimisation2
 ALPHA BEFORE:    7.6026319498199532E-002
 ALPHA AFTER:   0.31067658140765830     
  Cycle:    109 Energy:      -461.980031  Gnorm:      0.835917  CPU:    0.598
 Line minimisation2
 ALPHA BEFORE:   0.31067658140765830     
 ALPHA AFTER:    3.7627453750864126E-002
  Cycle:    110 Energy:      -462.010225  Gnorm:      0.409043  CPU:    0.605
 Line minimisation2
 ALPHA BEFORE:    3.7627453750864126E-002
 ALPHA AFTER:    4.6991879155444040E-002
  Cycle:    111 Energy:      -462.019296  Gnorm:      0.192680  CPU:    0.614
 Line minimisation2
 ALPHA BEFORE:    4.6991879155444040E-002
 ALPHA AFTER:   0.30040918996193694     
  Cycle:    112 Energy:      -462.031868  Gnorm:      0.341615  CPU:    0.624
 Perform trimming
 Line minimisation2
 ALPHA BEFORE:   0.30040918996193694     
 ALPHA AFTER:   0.23107769819655535     
  Cycle:    113 Energy:      -462.045635  Gnorm:      0.405198  CPU:    0.631
 Perform trimming
 Line minimisation2
 ALPHA BEFORE:   0.23107769819655535     
 ALPHA AFTER:    7.5247355500916657E-002
  Cycle:    114 Energy:      -462.057231  Gnorm:      0.317754  CPU:    0.639
 Line minimisation2
 ALPHA BEFORE:    7.5247355500916657E-002
 ALPHA AFTER:   0.11251914444496713     
  Cycle:    115 Energy:      -462.070280  Gnorm:      0.278107  CPU:    0.648
 Line minimisation2
 ALPHA BEFORE:   0.11251914444496713     
 ALPHA AFTER:   0.11898659409522913     
  Cycle:    116 Energy:      -462.080745  Gnorm:      0.392728  CPU:    0.658
 Perform trimming
 Line minimisation2
 ALPHA BEFORE:   0.11898659409522913     
 ALPHA AFTER:   0.16994953323848602     
  Cycle:    117 Energy:      -462.102222  Gnorm:      0.529943  CPU:    0.667
 Perform trimming
 Line minimisation2
 ALPHA BEFORE:   0.16994953323848602     
 ALPHA AFTER:   0.11104444113878431     
  Cycle:    118 Energy:      -462.130504  Gnorm:      0.550829  CPU:    0.674
 Line minimisation2
 ALPHA BEFORE:   0.11104444113878431     
 ALPHA AFTER:   0.11339023405508360     
  Cycle:    119 Energy:      -462.169480  Gnorm:      0.659927  CPU:    0.684
 Line minimisation2
 ALPHA BEFORE:   0.11339023405508360     
 ALPHA AFTER:    3.5281729421265527E-002
  Cycle:    120 Energy:      -462.186960  Gnorm:      0.357001  CPU:    0.691
 Line minimisation2
 ALPHA BEFORE:    3.5281729421265527E-002
 ALPHA AFTER:    9.6136602821013759E-002
  Cycle:    121 Energy:      -462.201183  Gnorm:      0.324003  CPU:    0.701
 Line minimisation2
 ALPHA BEFORE:    9.6136602821013759E-002
 ALPHA AFTER:   0.10818862387751062     
  Cycle:    122 Energy:      -462.214322  Gnorm:      0.318143  CPU:    0.710
 Line minimisation2
 ALPHA BEFORE:   0.10818862387751062     
 ALPHA AFTER:    6.1743124655406947E-002
  Cycle:    123 Energy:      -462.221720  Gnorm:      0.297622  CPU:    0.718
 Line minimisation2
 ALPHA BEFORE:    6.1743124655406947E-002
 ALPHA AFTER:   0.15593821278286363     
  Cycle:    124 Energy:      -462.238376  Gnorm:      0.234284  CPU:    0.727
 Line minimisation2
 ALPHA BEFORE:   0.15593821278286363     
 ALPHA AFTER:   0.26393951931022747     
  Cycle:    125 Energy:      -462.254988  Gnorm:      0.508042  CPU:    0.737
 Perform trimming
 Line minimisation2
 ALPHA BEFORE:   0.26393951931022747     
 ALPHA AFTER:   0.19223697265520251     
  Cycle:    126 Energy:      -462.273024  Gnorm:      0.335797  CPU:    0.744
 Line minimisation2
 ALPHA BEFORE:   0.19223697265520251     
 ALPHA AFTER:    9.5445128006156052E-002
  Cycle:    127 Energy:      -462.285468  Gnorm:      0.398477  CPU:    0.752
 Perform trimming
 Line minimisation2
 ALPHA BEFORE:    9.5445128006156052E-002
 ALPHA AFTER:    7.3789859374196631E-002
  Cycle:    128 Energy:      -462.296832  Gnorm:      0.281790  CPU:    0.760
 Line minimisation2
 ALPHA BEFORE:    7.3789859374196631E-002
 ALPHA AFTER:   0.28679535524309863     
  Cycle:    129 Energy:      -462.323001  Gnorm:      0.429204  CPU:    0.769
 Line minimisation2
 ALPHA BEFORE:   0.28679535524309863     
 ALPHA AFTER:    4.5689238556778755E-002
  Cycle:    130 Energy:      -462.332692  Gnorm:      0.284414  CPU:    0.776
 Line minimisation2
 ALPHA BEFORE:    4.5689238556778755E-002
 ALPHA AFTER:    7.2104300946840658E-002
  Cycle:    131 Energy:      -462.339406  Gnorm:      0.221836  CPU:    0.786
 Line minimisation2
 ALPHA BEFORE:    7.2104300946840658E-002
 ALPHA AFTER:   0.17855972519725938     
  Cycle:    132 Energy:      -462.349342  Gnorm:      0.239369  CPU:    0.793
 Line minimisation2
 ALPHA BEFORE:   0.17855972519725938     
 ALPHA AFTER:    8.9279862598629689E-002
  Cycle:    133 Energy:      -462.355032  Gnorm:      0.327215  CPU:    0.801
 Perform trimming
 Line minimisation2
 ALPHA BEFORE:    8.9279862598629689E-002
 ALPHA AFTER:   0.16139021823785418     
  Cycle:    134 Energy:      -462.369341  Gnorm:      0.345641  CPU:    0.810
 Line minimisation2
 ALPHA BEFORE:   0.16139021823785418     
 ALPHA AFTER:   0.17420456750288299     
  Cycle:    135 Energy:      -462.393241  Gnorm:      0.375808  CPU:    0.820
 Perform trimming
 Line minimisation2
 ALPHA BEFORE:   0.17420456750288299     
 ALPHA AFTER:   0.11151021374401508     
  Cycle:    136 Energy:      -462.410313  Gnorm:      0.454704  CPU:    0.828
 Perform trimming
 Line minimisation2
 ALPHA BEFORE:   0.11151021374401508     
 ALPHA AFTER:    6.7234931523408148E-002
  Cycle:    137 Energy:      -462.426504  Gnorm:      0.417959  CPU:    0.835
 Line minimisation2
 ALPHA BEFORE:    6.7234931523408148E-002
 ALPHA AFTER:   0.23793826379838062     
  Cycle:    138 Energy:      -462.475615  Gnorm:      0.532187  CPU:    0.845
 Perform trimming
 Line minimisation2
 ALPHA BEFORE:   0.23793826379838062     
 ALPHA AFTER:   0.11896913189919031     
  Cycle:    139 Energy:      -462.509059  Gnorm:      0.732679  CPU:    0.852
 Line minimisation2
 ALPHA BEFORE:   0.11896913189919031     
 ALPHA AFTER:    3.7794839395646769E-002
  Cycle:    140 Energy:      -462.532369  Gnorm:      0.446311  CPU:    0.862
 Line minimisation2
 ALPHA BEFORE:    3.7794839395646769E-002
 ALPHA AFTER:   0.10653075289975224     
  Cycle:    141 Energy:      -462.557289  Gnorm:      0.374380  CPU:    0.871
 Line minimisation2
 ALPHA BEFORE:   0.10653075289975224     
 ALPHA AFTER:   0.16252506721462998     
  Cycle:    142 Energy:      -462.582893  Gnorm:      0.454204  CPU:    0.880
 Perform trimming
 Line minimisation2
 ALPHA BEFORE:   0.16252506721462998     
 ALPHA AFTER:    7.3394477102173603E-002
  Cycle:    143 Energy:      -462.597951  Gnorm:      0.388705  CPU:    0.888
 Line minimisation2
 ALPHA BEFORE:    7.3394477102173603E-002
 ALPHA AFTER:    6.2087426451447603E-002
  Cycle:    144 Energy:      -462.608758  Gnorm:      0.268236  CPU:    0.896
 Line minimisation2
 ALPHA BEFORE:    6.2087426451447603E-002
 ALPHA AFTER:   0.22710073937096695     
  Cycle:    145 Energy:      -462.627394  Gnorm:      0.388431  CPU:    0.905
 Perform trimming
 Line minimisation2
 ALPHA BEFORE:   0.22710073937096695     
 ALPHA AFTER:    7.2233641912880328E-002
  Cycle:    146 Energy:      -462.635678  Gnorm:      0.242244  CPU:    0.915
 Line minimisation2
 ALPHA BEFORE:    7.2233641912880328E-002
 ALPHA AFTER:    9.2112789782802365E-002
  Cycle:    147 Energy:      -462.641564  Gnorm:      0.260456  CPU:    0.924
 Perform trimming
 Line minimisation2
 ALPHA BEFORE:    9.2112789782802365E-002
 ALPHA AFTER:    7.8327167502030379E-002
  Cycle:    148 Energy:      -462.647600  Gnorm:      0.221116  CPU:    0.932
 Line minimisation2
 ALPHA BEFORE:    7.8327167502030379E-002
 ALPHA AFTER:   0.11747845542103807     
  Cycle:    149 Energy:      -462.654059  Gnorm:      0.258434  CPU:    0.941
 Line minimisation2
 ALPHA BEFORE:   0.11747845542103807     
 ALPHA AFTER:    6.2935169409785316E-002
  Cycle:    150 Energy:      -462.658923  Gnorm:      0.229776  CPU:    0.949
 Line minimisation2
 ALPHA BEFORE:    6.2935169409785316E-002
 ALPHA AFTER:    6.6465524621934918E-002
  Cycle:    151 Energy:      -462.663000  Gnorm:      0.199511  CPU:    0.956
 Line minimisation2
 ALPHA BEFORE:    6.6465524621934918E-002
 ALPHA AFTER:   0.12465041886214595     
  Cycle:    152 Energy:      -462.668504  Gnorm:      0.192017  CPU:    0.966
 Line minimisation2
 ALPHA BEFORE:   0.12465041886214595     
 ALPHA AFTER:   0.42273629299121640     
  Cycle:    153 Energy:      -462.686176  Gnorm:      0.344002  CPU:    0.975
 Perform trimming
 Line minimisation2
 ALPHA BEFORE:   0.42273629299121640     
 ALPHA AFTER:   0.21136814649560820     
  Cycle:    154 Energy:      -462.698737  Gnorm:      0.427208  CPU:    0.983
 Perform trimming
 Line minimisation2
 ALPHA BEFORE:   0.21136814649560820     
 ALPHA AFTER:    6.9999864519867533E-002
  Cycle:    155 Energy:      -462.711085  Gnorm:      0.326075  CPU:    0.992
 Line minimisation2
 ALPHA BEFORE:    6.9999864519867533E-002
 ALPHA AFTER:   0.13530337682277738     
  Cycle:    156 Energy:      -462.727969  Gnorm:      0.316843  CPU:    1.002
 Line minimisation2
 ALPHA BEFORE:   0.13530337682277738     
 ALPHA AFTER:    9.6352741881975498E-002
  Cycle:    157 Energy:      -462.739282  Gnorm:      0.426733  CPU:    1.010
 Perform trimming
 Line minimisation2
 ALPHA BEFORE:    9.6352741881975498E-002
 ALPHA AFTER:   0.19490047505710098     
  Cycle:    158 Energy:      -462.771567  Gnorm:      0.571203  CPU:    1.020
 Perform trimming
 Line minimisation2
 ALPHA BEFORE:   0.19490047505710098     
 ALPHA AFTER:    8.4287690975325277E-002
  Cycle:    159 Energy:      -462.798253  Gnorm:      0.560828  CPU:    1.028
 Line minimisation2
 ALPHA BEFORE:    8.4287690975325277E-002
 ALPHA AFTER:    4.0033258759294761E-002
  Cycle:    160 Energy:      -462.812542  Gnorm:      0.419300  CPU:    1.035
 Line minimisation2
 ALPHA BEFORE:    4.0033258759294761E-002
 ALPHA AFTER:   0.17050034130653077     
  Cycle:    161 Energy:      -462.847613  Gnorm:      0.254094  CPU:    1.045
 Line minimisation2
 ALPHA BEFORE:   0.17050034130653077     
 ALPHA AFTER:    6.2060351123384372E-002
  Cycle:    162 Energy:      -462.852191  Gnorm:      0.238450  CPU:    1.053
 Line minimisation2
 ALPHA BEFORE:    6.2060351123384372E-002
 ALPHA AFTER:    9.7949309585283278E-002
  Cycle:    163 Energy:      -462.855542  Gnorm:      0.255484  CPU:    1.060
 Perform trimming
 Line minimisation2
 ALPHA BEFORE:    9.7949309585283278E-002
 ALPHA AFTER:    2.6650919757558723E-002
  Cycle:    164 Energy:      -462.856021  Gnorm:      0.276267  CPU:    1.068
 Line minimisation2
 ALPHA BEFORE:    2.6650919757558723E-002
 ALPHA AFTER:    5.6619601981602680E-002
  Cycle:    165 Energy:      -462.860987  Gnorm:      0.247352  CPU:    1.078
 Line minimisation2
 ALPHA BEFORE:    5.6619601981602680E-002
 ALPHA AFTER:    5.9804057835044978E-002
  Cycle:    166 Energy:      -462.865035  Gnorm:      0.144479  CPU:    1.088
 Line minimisation2
 ALPHA BEFORE:    5.9804057835044978E-002
 ALPHA AFTER:   0.36658654320924294     
  Cycle:    167 Energy:      -462.873835  Gnorm:      0.275228  CPU:    1.099
 Perform trimming
 Line minimisation2
 ALPHA BEFORE:   0.36658654320924294     
 ALPHA AFTER:   0.12102657840592956     
  Cycle:    168 Energy:      -462.877884  Gnorm:      0.192789  CPU:    1.107
 Line minimisation2
 ALPHA BEFORE:   0.12102657840592956     
 ALPHA AFTER:   0.11820999189330346     
  Cycle:    169 Energy:      -462.882942  Gnorm:      0.263664  CPU:    1.115
 Line minimisation2
 ALPHA BEFORE:   0.11820999189330346     
 ALPHA AFTER:    3.2662281222609904E-002
  Cycle:    170 Energy:      -462.885548  Gnorm:      0.136829  CPU:    1.124
 Line minimisation2
 ALPHA BEFORE:    3.2662281222609904E-002
 ALPHA AFTER:   0.17555720222919266     
  Cycle:    171 Energy:      -462.889324  Gnorm:      0.195519  CPU:    1.132
 Perform trimming
 Line minimisation2
 ALPHA BEFORE:   0.17555720222919266     
 ALPHA AFTER:   0.27762552315850797     
  Cycle:    172 Energy:      -462.893951  Gnorm:      0.300826  CPU:    1.140
 Perform trimming
 Line minimisation2
 ALPHA BEFORE:   0.27762552315850797     
 ALPHA AFTER:    7.1621019423338594E-002
  Cycle:    173 Energy:      -462.896630  Gnorm:      0.196036  CPU:    1.150
 Line minimisation2
 ALPHA BEFORE:    7.1621019423338594E-002
 ALPHA AFTER:   0.15567245356843179     
  Cycle:    174 Energy:      -462.903306  Gnorm:      0.242962  CPU:    1.160
 Perform trimming
 Line minimisation2
 ALPHA BEFORE:   0.15567245356843179     
 ALPHA AFTER:   0.18693185239871751     
  Cycle:    175 Energy:      -462.912546  Gnorm:      0.189322  CPU:    1.169
 Line minimisation2
 ALPHA BEFORE:   0.18693185239871751     
 ALPHA AFTER:    4.7548670254334756E-002
  Cycle:    176 Energy:      -462.914501  Gnorm:      0.165188  CPU:    1.177
 Line minimisation2
 ALPHA BEFORE:    4.7548670254334756E-002
 ALPHA AFTER:   0.21517906471263734     
  Cycle:    177 Energy:      -462.921250  Gnorm:      0.232343  CPU:    1.187
 Perform trimming
 Line minimisation2
 ALPHA BEFORE:   0.21517906471263734     
 ALPHA AFTER:   0.48544437605782159     
  Cycle:    178 Energy:      -462.941906  Gnorm:      0.561511  CPU:    1.197
 Perform trimming
 Line minimisation2
 ALPHA BEFORE:   0.48544437605782159     
 ALPHA AFTER:   0.27602592672791459     
  Cycle:    179 Energy:      -462.965913  Gnorm:      0.494518  CPU:    1.205
 Line minimisation2
 ALPHA BEFORE:   0.27602592672791459     
 ALPHA AFTER:    3.5841608615171300E-002
  Cycle:    180 Energy:      -462.975989  Gnorm:      0.281733  CPU:    1.213
 Line minimisation2
 ALPHA BEFORE:    3.5841608615171300E-002
 ALPHA AFTER:   0.11023338395358158     
  Cycle:    181 Energy:      -462.986084  Gnorm:      0.212729  CPU:    1.220
 Line minimisation2
 ALPHA BEFORE:   0.11023338395358158     
 ALPHA AFTER:    9.9638133111434074E-002
  Cycle:    182 Energy:      -462.991098  Gnorm:      0.120498  CPU:    1.228
 Line minimisation2
 ALPHA BEFORE:    9.9638133111434074E-002
 ALPHA AFTER:   0.15010136512000297     
  Cycle:    183 Energy:      -462.993619  Gnorm:      0.156436  CPU:    1.238
 Perform trimming
 Line minimisation2
 ALPHA BEFORE:   0.15010136512000297     
 ALPHA AFTER:   0.10724949819802422     
  Cycle:    184 Energy:      -462.995907  Gnorm:      0.200894  CPU:    1.245
 Perform trimming
 Line minimisation2
 ALPHA BEFORE:   0.10724949819802422     
 ALPHA AFTER:   0.25026303469610389     
  Cycle:    185 Energy:      -463.002967  Gnorm:      0.398251  CPU:    1.255
 Perform trimming
 Line minimisation2
 ALPHA BEFORE:   0.25026303469610389     
 ALPHA AFTER:   0.44244557234525100     
  Cycle:    186 Energy:      -463.021493  Gnorm:      0.546763  CPU:    1.265
 Perform trimming
 Line minimisation2
 ALPHA BEFORE:   0.44244557234525100     
 ALPHA AFTER:    8.7791415652054977E-002
  Cycle:    187 Energy:      -463.043008  Gnorm:      0.441310  CPU:    1.274
 Line minimisation2
 ALPHA BEFORE:    8.7791415652054977E-002
 ALPHA AFTER:    6.0063570128685601E-002
  Cycle:    188 Energy:      -463.056310  Gnorm:      0.309372  CPU:    1.282
 Line minimisation2
 ALPHA BEFORE:    6.0063570128685601E-002
 ALPHA AFTER:    8.6374026557307110E-002
  Cycle:    189 Energy:      -463.065957  Gnorm:      0.189348  CPU:    1.291
 Line minimisation2
 ALPHA BEFORE:    8.6374026557307110E-002
 ALPHA AFTER:    8.9192126810214378E-002
  Cycle:    190 Energy:      -463.069658  Gnorm:      0.108377  CPU:    1.301
 Line minimisation2
 ALPHA BEFORE:    8.9192126810214378E-002
 ALPHA AFTER:    9.1740219222224612E-002
  Cycle:    191 Energy:      -463.070899  Gnorm:      0.139550  CPU:    1.308
 Perform trimming
 Line minimisation2
 ALPHA BEFORE:    9.1740219222224612E-002
 ALPHA AFTER:   0.13274567410712873     
  Cycle:    192 Energy:      -463.073128  Gnorm:      0.172669  CPU:    1.316
 Perform trimming
 Line minimisation2
 ALPHA BEFORE:   0.13274567410712873     
 ALPHA AFTER:   0.18705558664297545     
  Cycle:    193 Energy:      -463.078367  Gnorm:      0.219998  CPU:    1.325
 Perform trimming
 Line minimisation2
 ALPHA BEFORE:   0.18705558664297545     
 ALPHA AFTER:   0.23433660097614423     
  Cycle:    194 Energy:      -463.087457  Gnorm:      0.444926  CPU:    1.335
 Perform trimming
 Line minimisation2
 ALPHA BEFORE:   0.23433660097614423     
 ALPHA AFTER:   0.35272797153412749     
  Cycle:    195 Energy:      -463.114000  Gnorm:      0.466205  CPU:    1.345
 Perform trimming
 Line minimisation2
 ALPHA BEFORE:   0.35272797153412749     
 ALPHA AFTER:    7.0902669116926192E-002
  Cycle:    196 Energy:      -463.127031  Gnorm:      0.325879  CPU:    1.355
 Line minimisation2
 ALPHA BEFORE:    7.0902669116926192E-002
 ALPHA AFTER:   0.13280053545977738     
  Cycle:    197 Energy:      -463.143307  Gnorm:      0.393874  CPU:    1.365
 Perform trimming
 Line minimisation2
 ALPHA BEFORE:   0.13280053545977738     
 ALPHA AFTER:   0.21899088543275566     
  Cycle:    198 Energy:      -463.170248  Gnorm:      0.449940  CPU:    1.375
 Line minimisation2
 ALPHA BEFORE:   0.21899088543275566     
 ALPHA AFTER:    6.2681519330024527E-002
  Cycle:    199 Energy:      -463.184982  Gnorm:      0.371141  CPU:    1.385
 Line minimisation2
 ALPHA BEFORE:    6.2681519330024527E-002
 ALPHA AFTER:    3.7848975588256867E-002
  Cycle:    200 Energy:      -463.190985  Gnorm:      0.232335  CPU:    1.393
 Line minimisation2
 ALPHA BEFORE:    3.7848975588256867E-002
 ALPHA AFTER:   0.10088905054694504     
  Cycle:    201 Energy:      -463.197283  Gnorm:      0.155464  CPU:    1.400
 Line minimisation2
 ALPHA BEFORE:   0.10088905054694504     
 ALPHA AFTER:    9.7997422705204021E-002
  Cycle:    202 Energy:      -463.200174  Gnorm:      0.144659  CPU:    1.410
 Line minimisation2
 ALPHA BEFORE:    9.7997422705204021E-002
 ALPHA AFTER:    7.0766177769613178E-002
  Cycle:    203 Energy:      -463.201833  Gnorm:      0.140417  CPU:    1.418
 Line minimisation2
 ALPHA BEFORE:    7.0766177769613178E-002
 ALPHA AFTER:    6.7862810598594558E-002
  Cycle:    204 Energy:      -463.203608  Gnorm:      0.092376  CPU:    1.431
 Line minimisation2
 ALPHA BEFORE:    6.7862810598594558E-002
 ALPHA AFTER:   0.43919686977248718     
  Cycle:    205 Energy:      -463.207351  Gnorm:      0.155096  CPU:    1.441
 Perform trimming
 Line minimisation2
 ALPHA BEFORE:   0.43919686977248718     
 ALPHA AFTER:   0.23987859132436995     
  Cycle:    206 Energy:      -463.210691  Gnorm:      0.300545  CPU:    1.448
 Perform trimming
 Line minimisation2
 ALPHA BEFORE:   0.23987859132436995     
 ALPHA AFTER:   0.29494102896006213     
  Cycle:    207 Energy:      -463.222185  Gnorm:      0.358527  CPU:    1.458
 Perform trimming
 Line minimisation2
 ALPHA BEFORE:   0.29494102896006213     
 ALPHA AFTER:    9.0240964311567987E-002
  Cycle:    208 Energy:      -463.230100  Gnorm:      0.190272  CPU:    1.468
 Line minimisation2
 ALPHA BEFORE:    9.0240964311567987E-002
 ALPHA AFTER:    9.7351784683442466E-002
  Cycle:    209 Energy:      -463.234016  Gnorm:      0.200309  CPU:    1.477
 Line minimisation2
 ALPHA BEFORE:    9.7351784683442466E-002
 ALPHA AFTER:    2.5752056497824864E-002
  Cycle:    210 Energy:      -463.235207  Gnorm:      0.062616  CPU:    1.485
 Line minimisation2
 ALPHA BEFORE:    2.5752056497824864E-002
 ALPHA AFTER:   0.32618316656459506     
  Cycle:    211 Energy:      -463.236684  Gnorm:      0.118947  CPU:    1.492
 Perform trimming
 Line minimisation2
 ALPHA BEFORE:   0.32618316656459506     
 ALPHA AFTER:   0.46736871295972604     
  Cycle:    212 Energy:      -463.239701  Gnorm:      0.133904  CPU:    1.502
 Perform trimming
 Line minimisation2
 ALPHA BEFORE:   0.46736871295972604     
 ALPHA AFTER:   0.19241433553535103     
  Cycle:    213 Energy:      -463.243693  Gnorm:      0.141416  CPU:    1.510
 Perform trimming
 Line minimisation2
 ALPHA BEFORE:   0.19241433553535103     
 ALPHA AFTER:    9.3105468301761890E-002
  Cycle:    214 Energy:      -463.245555  Gnorm:      0.163807  CPU:    1.518
 Perform trimming
 Line minimisation2
 ALPHA BEFORE:    9.3105468301761890E-002
 ALPHA AFTER:   0.10115473255943233     
  Cycle:    215 Energy:      -463.248011  Gnorm:      0.169720  CPU:    1.527
 Line minimisation2
 ALPHA BEFORE:   0.10115473255943233     
 ALPHA AFTER:   0.16824539789246337     
  Cycle:    216 Energy:      -463.253066  Gnorm:      0.212791  CPU:    1.537
 Perform trimming
 Line minimisation2
 ALPHA BEFORE:   0.16824539789246337     
 ALPHA AFTER:   0.13633097043018499     
  Cycle:    217 Energy:      -463.258712  Gnorm:      0.330479  CPU:    1.545
 Perform trimming
 Line minimisation2
 ALPHA BEFORE:   0.13633097043018499     
 ALPHA AFTER:   0.16934633330057136     
  Cycle:    218 Energy:      -463.270927  Gnorm:      0.254635  CPU:    1.554
 Line minimisation2
 ALPHA BEFORE:   0.16934633330057136     
 ALPHA AFTER:   0.15553800312824101     
  Cycle:    219 Energy:      -463.282397  Gnorm:      0.357667  CPU:    1.562
 Line minimisation2
 ALPHA BEFORE:   0.15553800312824101     
 ALPHA AFTER:    3.1840128012146550E-002
  Cycle:    220 Energy:      -463.287089  Gnorm:      0.157502  CPU:    1.572
 Line minimisation2
 ALPHA BEFORE:    3.1840128012146550E-002
 ALPHA AFTER:    8.5588574181218569E-002
  Cycle:    221 Energy:      -463.289536  Gnorm:      0.106753  CPU:    1.580
 Line minimisation2
 ALPHA BEFORE:    8.5588574181218569E-002
 ALPHA AFTER:    8.3815842270680965E-002
  Cycle:    222 Energy:      -463.290636  Gnorm:      0.083343  CPU:    1.587
 Line minimisation2
 ALPHA BEFORE:    8.3815842270680965E-002
 ALPHA AFTER:    7.1225479219490476E-002
  Cycle:    223 Energy:      -463.291206  Gnorm:      0.098118  CPU:    1.595
 Perform trimming
 Line minimisation2
 ALPHA BEFORE:    7.1225479219490476E-002
 ALPHA AFTER:   0.16768117044274622     
  Cycle:    224 Energy:      -463.292919  Gnorm:      0.099995  CPU:    1.603
 Line minimisation2
 ALPHA BEFORE:   0.16768117044274622     
 ALPHA AFTER:   0.39981334694332538     
  Cycle:    225 Energy:      -463.297384  Gnorm:      0.146441  CPU:    1.612
 Perform trimming
 Line minimisation2
 ALPHA BEFORE:   0.39981334694332538     
 ALPHA AFTER:   0.29941197605798747     
  Cycle:    226 Energy:      -463.302006  Gnorm:      0.264539  CPU:    1.620
 Perform trimming
 Line minimisation2
 ALPHA BEFORE:   0.29941197605798747     
 ALPHA AFTER:   0.19394864932590855     
  Cycle:    227 Energy:      -463.308993  Gnorm:      0.353244  CPU:    1.627
 Perform trimming
 Line minimisation2
 ALPHA BEFORE:   0.19394864932590855     
 ALPHA AFTER:   0.10947615006595612     
  Cycle:    228 Energy:      -463.319316  Gnorm:      0.262391  CPU:    1.635
 Line minimisation2
 ALPHA BEFORE:   0.10947615006595612     
 ALPHA AFTER:    8.2318151237615933E-002
  Cycle:    229 Energy:      -463.326428  Gnorm:      0.214137  CPU:    1.642
 Line minimisation2
 ALPHA BEFORE:    8.2318151237615933E-002
 ALPHA AFTER:    3.1203354871398102E-002
  Cycle:    230 Energy:      -463.328077  Gnorm:      0.100747  CPU:    1.650
 Line minimisation2
 ALPHA BEFORE:    3.1203354871398102E-002
 ALPHA AFTER:    8.3067826682157175E-002
  Cycle:    231 Energy:      -463.329044  Gnorm:      0.082222  CPU:    1.657
 Line minimisation2
 ALPHA BEFORE:    8.3067826682157175E-002
 ALPHA AFTER:   0.10031230675169428     
  Cycle:    232 Energy:      -463.330515  Gnorm:      0.063643  CPU:    1.667
 Line minimisation2
 ALPHA BEFORE:   0.10031230675169428     
 ALPHA AFTER:   0.12434956718244683     
  Cycle:    233 Energy:      -463.331053  Gnorm:      0.074327  CPU:    1.674
 Perform trimming
 Line minimisation2
 ALPHA BEFORE:   0.12434956718244683     
 ALPHA AFTER:   0.12046874972133963     
  Cycle:    234 Energy:      -463.331668  Gnorm:      0.113647  CPU:    1.684
 Perform trimming
 Line minimisation2
 ALPHA BEFORE:   0.12046874972133963     
 ALPHA AFTER:   0.29517136520056203     
  Cycle:    235 Energy:      -463.334086  Gnorm:      0.147596  CPU:    1.693
 Perform trimming
 Line minimisation2
 ALPHA BEFORE:   0.29517136520056203     
 ALPHA AFTER:   0.14758568260028102     
  Cycle:    236 Energy:      -463.335994  Gnorm:      0.163106  CPU:    1.701
 Perform trimming
 Line minimisation2
 ALPHA BEFORE:   0.14758568260028102     
 ALPHA AFTER:    7.1728951031424223E-002
  Cycle:    237 Energy:      -463.337694  Gnorm:      0.092105  CPU:    1.708
 Line minimisation2
 ALPHA BEFORE:    7.1728951031424223E-002
 ALPHA AFTER:   0.33842793026157258     
  Cycle:    238 Energy:      -463.341004  Gnorm:      0.234726  CPU:    1.716
 Perform trimming
 Line minimisation2
 ALPHA BEFORE:   0.33842793026157258     
 ALPHA AFTER:   0.50108274536155883     
  Cycle:    239 Energy:      -463.347083  Gnorm:      0.215349  CPU:    1.724
 Line minimisation2
 ALPHA BEFORE:   0.50108274536155883     
 ALPHA AFTER:    7.7622427839739133E-002
  Cycle:    240 Energy:      -463.351203  Gnorm:      0.196763  CPU:    1.731
 Line minimisation2
 ALPHA BEFORE:    7.7622427839739133E-002
 ALPHA AFTER:    4.9037962712587181E-002
  Cycle:    241 Energy:      -463.353381  Gnorm:      0.121303  CPU:    1.739
 Line minimisation2
 ALPHA BEFORE:    4.9037962712587181E-002
 ALPHA AFTER:    8.7553963637276758E-002
  Cycle:    242 Energy:      -463.354862  Gnorm:      0.081225  CPU:    1.748
 Line minimisation2
 ALPHA BEFORE:    8.7553963637276758E-002
 ALPHA AFTER:   0.35781911549725015     
  Cycle:    243 Energy:      -463.357733  Gnorm:      0.189668  CPU:    1.758
 Perform trimming
 Line minimisation2
 ALPHA BEFORE:   0.35781911549725015     
 ALPHA AFTER:   0.20441442455610911     
  Cycle:    244 Energy:      -463.360147  Gnorm:      0.104467  CPU:    1.765
 Line minimisation2
 ALPHA BEFORE:   0.20441442455610911     
 ALPHA AFTER:    5.1103606139027279E-002
  Cycle:    245 Energy:      -463.361009  Gnorm:      0.063519  CPU:    1.773
 Line minimisation2
 ALPHA BEFORE:    5.1103606139027279E-002
 ALPHA AFTER:    5.9101671384059543E-003
  Cycle:    246 Energy:      -463.361067  Gnorm:      0.058887  CPU:    1.784
 Line minimisation2
 ALPHA BEFORE:    5.9101671384059543E-003
 ALPHA AFTER:   0.10004796458180519     
  Cycle:    247 Energy:      -463.361259  Gnorm:      0.078109  CPU:    1.794
 Perform trimming
 Line minimisation2
 ALPHA BEFORE:   0.10004796458180519     
 ALPHA AFTER:   0.13342601953498651     
  Cycle:    248 Energy:      -463.361876  Gnorm:      0.070404  CPU:    1.802
 Line minimisation2
 ALPHA BEFORE:   0.13342601953498651     
 ALPHA AFTER:   0.23916740149248211     
  Cycle:    249 Energy:      -463.363065  Gnorm:      0.139374  CPU:    1.812
 Line minimisation2
 ALPHA BEFORE:   0.23916740149248211     
 ALPHA AFTER:    2.8670231369242488E-002
  Cycle:    250 Energy:      -463.363664  Gnorm:      0.050232  CPU:    1.820
 Line minimisation2
 ALPHA BEFORE:    2.8670231369242488E-002
 ALPHA AFTER:   0.17317133072583868     
  Cycle:    251 Energy:      -463.364293  Gnorm:      0.079612  CPU:    1.833
 Perform trimming
 Line minimisation2
 ALPHA BEFORE:   0.17317133072583868     
 ALPHA AFTER:   0.24964325753411828     
  Cycle:    252 Energy:      -463.365285  Gnorm:      0.122192  CPU:    1.840
 Perform trimming
 Line minimisation2
 ALPHA BEFORE:   0.24964325753411828     
 ALPHA AFTER:   0.11011075106669529     
  Cycle:    253 Energy:      -463.366246  Gnorm:      0.086137  CPU:    1.848
 Line minimisation2
 ALPHA BEFORE:   0.11011075106669529     
 ALPHA AFTER:   0.13263764887768312     
  Cycle:    254 Energy:      -463.367554  Gnorm:      0.122248  CPU:    1.857
 Perform trimming
 Line minimisation2
 ALPHA BEFORE:   0.13263764887768312     
 ALPHA AFTER:   0.25148213900094329     
  Cycle:    255 Energy:      -463.369797  Gnorm:      0.155646  CPU:    1.866
 Perform trimming
 Line minimisation2
 ALPHA BEFORE:   0.25148213900094329     
 ALPHA AFTER:    9.8623867423339215E-002
  Cycle:    256 Energy:      -463.371858  Gnorm:      0.152387  CPU:    1.874
 Line minimisation2
 ALPHA BEFORE:    9.8623867423339215E-002
 ALPHA AFTER:    6.8425770355117058E-002
  Cycle:    257 Energy:      -463.374283  Gnorm:      0.133909  CPU:    1.881
 Line minimisation2
 ALPHA BEFORE:    6.8425770355117058E-002
 ALPHA AFTER:   0.12666187310733101     
  Cycle:    258 Energy:      -463.377584  Gnorm:      0.113733  CPU:    1.892
 Line minimisation2
 ALPHA BEFORE:   0.12666187310733101     
 ALPHA AFTER:   0.20502057119833134     
  Cycle:    259 Energy:      -463.380281  Gnorm:      0.181559  CPU:    1.902
 Line minimisation2
 ALPHA BEFORE:   0.20502057119833134     
 ALPHA AFTER:    5.8987365356420948E-002
  Cycle:    260 Energy:      -463.382700  Gnorm:      0.172868  CPU:    1.911
 Line minimisation2
 ALPHA BEFORE:    5.8987365356420948E-002
 ALPHA AFTER:    6.0189024818510455E-002
  Cycle:    261 Energy:      -463.384774  Gnorm:      0.055329  CPU:    1.919
 Line minimisation2
 ALPHA BEFORE:    6.0189024818510455E-002
 ALPHA AFTER:   0.10872387509355065     
  Cycle:    262 Energy:      -463.385157  Gnorm:      0.050729  CPU:    1.926
 Line minimisation2
 ALPHA BEFORE:   0.10872387509355065     
 ALPHA AFTER:   0.27980490141194198     
  Cycle:    263 Energy:      -463.385985  Gnorm:      0.090827  CPU:    1.933
 Perform trimming
 Line minimisation2
 ALPHA BEFORE:   0.27980490141194198     
 ALPHA AFTER:   0.86224514915842643     
  Cycle:    264 Energy:      -463.389382  Gnorm:      0.168142  CPU:    1.943
 Perform trimming
 Line minimisation2
 ALPHA BEFORE:   0.86224514915842643     
 ALPHA AFTER:   0.11036384293975632     
  Cycle:    265 Energy:      -463.390808  Gnorm:      0.126762  CPU:    1.951
 Line minimisation2
 ALPHA BEFORE:   0.11036384293975632     
 ALPHA AFTER:   0.12167415968381358     
  Cycle:    266 Energy:      -463.393067  Gnorm:      0.184902  CPU:    1.958
 Perform trimming
 Line minimisation2
 ALPHA BEFORE:   0.12167415968381358     
 ALPHA AFTER:   0.19873300536472163     
  Cycle:    267 Energy:      -463.396970  Gnorm:      0.094148  CPU:    1.969
 Line minimisation2
 ALPHA BEFORE:   0.19873300536472163     
 ALPHA AFTER:    5.7053542064287754E-002
  Cycle:    268 Energy:      -463.397729  Gnorm:      0.089960  CPU:    1.978
 Line minimisation2
 ALPHA BEFORE:    5.7053542064287754E-002
 ALPHA AFTER:    2.3675481127272052E-002
  Cycle:    269 Energy:      -463.398118  Gnorm:      0.070665  CPU:    1.988
 Line minimisation2
 ALPHA BEFORE:    2.3675481127272052E-002
 ALPHA AFTER:    9.3721167450850403E-004
  Cycle:    270 Energy:      -463.398129  Gnorm:      0.069093  CPU:    1.997
 Line minimisation2
 ALPHA BEFORE:    9.3721167450850403E-004
 ALPHA AFTER:    4.4152075272663335E-002
  Cycle:    271 Energy:      -463.398192  Gnorm:      0.056191  CPU:    2.010
 Line minimisation2
 ALPHA BEFORE:    4.4152075272663335E-002
 ALPHA AFTER:   0.22726236542528705     
  Cycle:    272 Energy:      -463.399018  Gnorm:      0.062980  CPU:    2.018
 Perform trimming
 Line minimisation2
 ALPHA BEFORE:   0.22726236542528705     
 ALPHA AFTER:   0.10164457938343482     
  Cycle:    273 Energy:      -463.399457  Gnorm:      0.081996  CPU:    2.026
 Perform trimming
 Line minimisation2
 ALPHA BEFORE:   0.10164457938343482     
 ALPHA AFTER:   0.14293004498485523     
  Cycle:    274 Energy:      -463.400353  Gnorm:      0.120263  CPU:    2.033
 Perform trimming
 Line minimisation2
 ALPHA BEFORE:   0.14293004498485523     
 ALPHA AFTER:   0.29602300507288692     
  Cycle:    275 Energy:      -463.403460  Gnorm:      0.151661  CPU:    2.043
 Perform trimming
 Line minimisation2
 ALPHA BEFORE:   0.29602300507288692     
 ALPHA AFTER:   0.12049172143941297     
  Cycle:    276 Energy:      -463.405765  Gnorm:      0.184628  CPU:    2.050
 Perform trimming
 Line minimisation2
 ALPHA BEFORE:   0.12049172143941297     
 ALPHA AFTER:   0.18531687574931172     
  Cycle:    277 Energy:      -463.411717  Gnorm:      0.288361  CPU:    2.060
 Perform trimming
 Line minimisation2
 ALPHA BEFORE:   0.18531687574931172     
 ALPHA AFTER:   0.41032664590663176     
  Cycle:    278 Energy:      -463.429318  Gnorm:      0.415922  CPU:    2.069
 Perform trimming
 Line minimisation2
 ALPHA BEFORE:   0.41032664590663176     
 ALPHA AFTER:    9.3491038500658694E-002
  Cycle:    279 Energy:      -463.438530  Gnorm:      0.234411  CPU:    2.079
 Line minimisation2
 ALPHA BEFORE:    9.3491038500658694E-002
 ALPHA AFTER:    3.4309570873693893E-002
  Cycle:    280 Energy:      -463.440706  Gnorm:      0.140140  CPU:    2.086
 Line minimisation2
 ALPHA BEFORE:    3.4309570873693893E-002
 ALPHA AFTER:   0.11351009382916458     
  Cycle:    281 Energy:      -463.443290  Gnorm:      0.085028  CPU:    2.094
 Line minimisation2
 ALPHA BEFORE:   0.11351009382916458     
 ALPHA AFTER:   0.10326660544096236     
  Cycle:    282 Energy:      -463.444154  Gnorm:      0.075807  CPU:    2.101
 Line minimisation2
 ALPHA BEFORE:   0.10326660544096236     
 ALPHA AFTER:    7.0080976232347977E-002
  Cycle:    283 Energy:      -463.444617  Gnorm:      0.078094  CPU:    2.109
 Line minimisation2
 ALPHA BEFORE:    7.0080976232347977E-002
 ALPHA AFTER:   0.11366488068499353     
  Cycle:    284 Energy:      -463.445416  Gnorm:      0.065067  CPU:    2.116
 Line minimisation2
 ALPHA BEFORE:   0.11366488068499353     
 ALPHA AFTER:   0.15972750343953954     
  Cycle:    285 Energy:      -463.446195  Gnorm:      0.067114  CPU:    2.124
 Line minimisation2
 ALPHA BEFORE:   0.15972750343953954     
 ALPHA AFTER:   0.14238992839529052     
  Cycle:    286 Energy:      -463.446933  Gnorm:      0.122562  CPU:    2.131
 Perform trimming
 Line minimisation2
 ALPHA BEFORE:   0.14238992839529052     
 ALPHA AFTER:   0.26235437931777544     
  Cycle:    287 Energy:      -463.448911  Gnorm:      0.140071  CPU:    2.139
 Line minimisation2
 ALPHA BEFORE:   0.26235437931777544     
 ALPHA AFTER:    7.5697874031532275E-002
  Cycle:    288 Energy:      -463.450618  Gnorm:      0.092205  CPU:    2.146
 Line minimisation2
 ALPHA BEFORE:    7.5697874031532275E-002
 ALPHA AFTER:    7.6145652291010682E-002
  Cycle:    289 Energy:      -463.451361  Gnorm:      0.109849  CPU:    2.154
 Line minimisation2
 ALPHA BEFORE:    7.6145652291010682E-002
 ALPHA AFTER:    3.8794853130545752E-002
  Cycle:    290 Energy:      -463.451899  Gnorm:      0.065306  CPU:    2.162
 Line minimisation2
 ALPHA BEFORE:    3.8794853130545752E-002
 ALPHA AFTER:    7.8870107882339405E-002
  Cycle:    291 Energy:      -463.452284  Gnorm:      0.069492  CPU:    2.169
 Line minimisation2
 ALPHA BEFORE:    7.8870107882339405E-002
 ALPHA AFTER:   0.38167844334518886     
  Cycle:    292 Energy:      -463.454404  Gnorm:      0.094826  CPU:    2.177
 Perform trimming
 Line minimisation2
 ALPHA BEFORE:   0.38167844334518886     
 ALPHA AFTER:   0.13883977935334460     
  Cycle:    293 Energy:      -463.455445  Gnorm:      0.084322  CPU:    2.184
 Line minimisation2
 ALPHA BEFORE:   0.13883977935334460     
 ALPHA AFTER:    5.6402727176674688E-002
  Cycle:    294 Energy:      -463.455907  Gnorm:      0.068865  CPU:    2.192
 Line minimisation2
 ALPHA BEFORE:    5.6402727176674688E-002
 ALPHA AFTER:   0.12072815431527294     
  Cycle:    295 Energy:      -463.456565  Gnorm:      0.064351  CPU:    2.199
 Line minimisation2
 ALPHA BEFORE:   0.12072815431527294     
 ALPHA AFTER:   0.24039407054677123     
  Cycle:    296 Energy:      -463.457705  Gnorm:      0.100550  CPU:    2.207
 Perform trimming
 Line minimisation2
 ALPHA BEFORE:   0.24039407054677123     
 ALPHA AFTER:   0.17491194364163284     
  Cycle:    297 Energy:      -463.458908  Gnorm:      0.163221  CPU:    2.214
 Perform trimming
 Line minimisation2
 ALPHA BEFORE:   0.17491194364163284     
 ALPHA AFTER:   0.22832726604013975     
  Cycle:    298 Energy:      -463.462693  Gnorm:      0.201305  CPU:    2.224
 Perform trimming
 Line minimisation2
 ALPHA BEFORE:   0.22832726604013975     
 ALPHA AFTER:   0.12467402249837899     
  Cycle:    299 Energy:      -463.466370  Gnorm:      0.187097  CPU:    2.231
 Line minimisation2
 ALPHA BEFORE:   0.12467402249837899     
 ALPHA AFTER:    2.8770211398870225E-002
  Cycle:    300 Energy:      -463.467527  Gnorm:      0.074158  CPU:    2.239
 Line minimisation2
 ALPHA BEFORE:    2.8770211398870225E-002
 ALPHA AFTER:   0.11404929330225547     
  Cycle:    301 Energy:      -463.468250  Gnorm:      0.066484  CPU:    2.246
 Line minimisation2
 ALPHA BEFORE:   0.11404929330225547     
 ALPHA AFTER:   0.11476760107154335     
  Cycle:    302 Energy:      -463.468836  Gnorm:      0.083588  CPU:    2.254
 Perform trimming
 Line minimisation2
 ALPHA BEFORE:   0.11476760107154335     
 ALPHA AFTER:    7.6916151988448700E-002
  Cycle:    303 Energy:      -463.469344  Gnorm:      0.063667  CPU:    2.261
 Line minimisation2
 ALPHA BEFORE:    7.6916151988448700E-002
 ALPHA AFTER:   0.16815351393960862     
  Cycle:    304 Energy:      -463.470127  Gnorm:      0.069603  CPU:    2.269
 Perform trimming
 Line minimisation2
 ALPHA BEFORE:   0.16815351393960862     
 ALPHA AFTER:   0.19514160695945773     
  Cycle:    305 Energy:      -463.471164  Gnorm:      0.121102  CPU:    2.277
 Perform trimming
 Line minimisation2
 ALPHA BEFORE:   0.19514160695945773     
 ALPHA AFTER:   0.14349647943216340     
  Cycle:    306 Energy:      -463.472375  Gnorm:      0.088333  CPU:    2.284
 Line minimisation2
 ALPHA BEFORE:   0.14349647943216340     
 ALPHA AFTER:   0.11755277682383569     
  Cycle:    307 Energy:      -463.473457  Gnorm:      0.106570  CPU:    2.292
 Perform trimming
 Line minimisation2
 ALPHA BEFORE:   0.11755277682383569     
 ALPHA AFTER:    8.3273123320334597E-002
  Cycle:    308 Energy:      -463.474336  Gnorm:      0.089510  CPU:    2.299
 Line minimisation2
 ALPHA BEFORE:    8.3273123320334597E-002
 ALPHA AFTER:   0.13467335021459295     
  Cycle:    309 Energy:      -463.475751  Gnorm:      0.118820  CPU:    2.308
 Line minimisation2
 ALPHA BEFORE:   0.13467335021459295     
 ALPHA AFTER:    4.0827474023067467E-002
  Cycle:    310 Energy:      -463.476239  Gnorm:      0.069849  CPU:    2.318
 Line minimisation2
 ALPHA BEFORE:    4.0827474023067467E-002
 ALPHA AFTER:    6.6841034665066371E-002
  Cycle:    311 Energy:      -463.476614  Gnorm:      0.060724  CPU:    2.325
 Line minimisation2
 ALPHA BEFORE:    6.6841034665066371E-002
 ALPHA AFTER:   0.14474751466713920     
  Cycle:    312 Energy:      -463.477225  Gnorm:      0.058095  CPU:    2.333
 Line minimisation2
 ALPHA BEFORE:   0.14474751466713920     
 ALPHA AFTER:   0.13472664607381390     
  Cycle:    313 Energy:      -463.477775  Gnorm:      0.101350  CPU:    2.342
 Perform trimming
 Line minimisation2
 ALPHA BEFORE:   0.13472664607381390     
 ALPHA AFTER:   0.15103559344535514     
  Cycle:    314 Energy:      -463.479206  Gnorm:      0.053960  CPU:    2.352
 Line minimisation2
 ALPHA BEFORE:   0.15103559344535514     
 ALPHA AFTER:   0.10465676567151652     
  Cycle:    315 Energy:      -463.479547  Gnorm:      0.064108  CPU:    2.359
 Perform trimming
 Line minimisation2
 ALPHA BEFORE:   0.10465676567151652     
 ALPHA AFTER:    7.0128167393969501E-002
  Cycle:    316 Energy:      -463.479816  Gnorm:      0.041358  CPU:    2.367
 Line minimisation2
 ALPHA BEFORE:    7.0128167393969501E-002
 ALPHA AFTER:   0.25444360237430369     
  Cycle:    317 Energy:      -463.480316  Gnorm:      0.073858  CPU:    2.375
 Perform trimming
 Line minimisation2
 ALPHA BEFORE:   0.25444360237430369     
 ALPHA AFTER:   0.22090538344195168     
  Cycle:    318 Energy:      -463.480869  Gnorm:      0.095641  CPU:    2.382
 Perform trimming
 Line minimisation2
 ALPHA BEFORE:   0.22090538344195168     
 ALPHA AFTER:   0.11299369174690692     
  Cycle:    319 Energy:      -463.481737  Gnorm:      0.102412  CPU:    2.390
 Line minimisation2
 ALPHA BEFORE:   0.11299369174690692     
 ALPHA AFTER:    2.9439440143392562E-002
  Cycle:    320 Energy:      -463.482092  Gnorm:      0.047917  CPU:    2.399
 Line minimisation2
 ALPHA BEFORE:    2.9439440143392562E-002
 ALPHA AFTER:   0.19317057777065011     
  Cycle:    321 Energy:      -463.482620  Gnorm:      0.050868  CPU:    2.409
 Line minimisation2
 ALPHA BEFORE:   0.19317057777065011     
 ALPHA AFTER:   0.15213495938791352     
  Cycle:    322 Energy:      -463.483072  Gnorm:      0.053390  CPU:    2.417
 Line minimisation2
 ALPHA BEFORE:   0.15213495938791352     
 ALPHA AFTER:   0.24059658973672382     
  Cycle:    323 Energy:      -463.483841  Gnorm:      0.092131  CPU:    2.426
 Perform trimming
 Line minimisation2
 ALPHA BEFORE:   0.24059658973672382     
 ALPHA AFTER:   0.18427953633357408     
  Cycle:    324 Energy:      -463.484754  Gnorm:      0.120132  CPU:    2.434
 Perform trimming
 Line minimisation2
 ALPHA BEFORE:   0.18427953633357408     
 ALPHA AFTER:   0.14100588524806412     
  Cycle:    325 Energy:      -463.486710  Gnorm:      0.153400  CPU:    2.442
 Perform trimming
 Line minimisation2
 ALPHA BEFORE:   0.14100588524806412     
 ALPHA AFTER:   0.16308238509728135     
  Cycle:    326 Energy:      -463.489617  Gnorm:      0.144997  CPU:    2.452
 Line minimisation2
 ALPHA BEFORE:   0.16308238509728135     
 ALPHA AFTER:   0.11399174703325023     
  Cycle:    327 Energy:      -463.492431  Gnorm:      0.166736  CPU:    2.459
 Perform trimming
 Line minimisation2
 ALPHA BEFORE:   0.11399174703325023     
 ALPHA AFTER:   0.13127465100261995     
  Cycle:    328 Energy:      -463.496206  Gnorm:      0.202734  CPU:    2.469
 Perform trimming
 Line minimisation2
 ALPHA BEFORE:   0.13127465100261995     
 ALPHA AFTER:   0.10016764384831950     
  Cycle:    329 Energy:      -463.500795  Gnorm:      0.223638  CPU:    2.476
 Line minimisation2
 ALPHA BEFORE:   0.10016764384831950     
 ALPHA AFTER:    4.1328717533700154E-002
  Cycle:    330 Energy:      -463.503175  Gnorm:      0.146198  CPU:    2.484
 Line minimisation2
 ALPHA BEFORE:    4.1328717533700154E-002
 ALPHA AFTER:    6.7570277749285562E-002
  Cycle:    331 Energy:      -463.504840  Gnorm:      0.088990  CPU:    2.491
 Line minimisation2
 ALPHA BEFORE:    6.7570277749285562E-002
 ALPHA AFTER:    9.0885232134000737E-002
  Cycle:    332 Energy:      -463.505669  Gnorm:      0.066977  CPU:    2.499
 Line minimisation2
 ALPHA BEFORE:    9.0885232134000737E-002
 ALPHA AFTER:    7.6564284109163980E-002
  Cycle:    333 Energy:      -463.506065  Gnorm:      0.063577  CPU:    2.507
 Line minimisation2
 ALPHA BEFORE:    7.6564284109163980E-002
 ALPHA AFTER:    6.0590087424242475E-002
  Cycle:    334 Energy:      -463.506366  Gnorm:      0.039622  CPU:    2.514
 Line minimisation2
 ALPHA BEFORE:    6.0590087424242475E-002
 ALPHA AFTER:   0.46684425458527662     
  Cycle:    335 Energy:      -463.507208  Gnorm:      0.078215  CPU:    2.522
 Perform trimming
 Line minimisation2
 ALPHA BEFORE:   0.46684425458527662     
 ALPHA AFTER:    1.8202122235740177     
  Cycle:    336 Energy:      -463.511867  Gnorm:      0.182469  CPU:    2.531
 Perform trimming
 Line minimisation2
 ALPHA BEFORE:    1.8202122235740177     
 ALPHA AFTER:   0.21588051741680858     
  Cycle:    337 Energy:      -463.513810  Gnorm:      0.165940  CPU:    2.541
 Perform trimming
 Line minimisation2
 ALPHA BEFORE:   0.21588051741680858     
 ALPHA AFTER:    5.1642692125385685E-002
  Cycle:    338 Energy:      -463.515515  Gnorm:      0.118834  CPU:    2.550
 Line minimisation2
 ALPHA BEFORE:    5.1642692125385685E-002
 ALPHA AFTER:    6.4773001112882964E-002
  Cycle:    339 Energy:      -463.517325  Gnorm:      0.069222  CPU:    2.560
 Line minimisation2
 ALPHA BEFORE:    6.4773001112882964E-002
 ALPHA AFTER:    6.5575628726687957E-002
  Cycle:    340 Energy:      -463.517684  Gnorm:      0.082722  CPU:    2.567
 Perform trimming
 Line minimisation2
 ALPHA BEFORE:    6.5575628726687957E-002
 ALPHA AFTER:   0.20213163043409310     
  Cycle:    341 Energy:      -463.518964  Gnorm:      0.093896  CPU:    2.575
 Perform trimming
 Line minimisation2
 ALPHA BEFORE:   0.20213163043409310     
 ALPHA AFTER:   0.10196374813493586     
  Cycle:    342 Energy:      -463.519930  Gnorm:      0.049883  CPU:    2.582
 Line minimisation2
 ALPHA BEFORE:   0.10196374813493586     
 ALPHA AFTER:    9.4761483543721242E-002
  Cycle:    343 Energy:      -463.520201  Gnorm:      0.074048  CPU:    2.590
 Perform trimming
 Line minimisation2
 ALPHA BEFORE:    9.4761483543721242E-002
 ALPHA AFTER:   0.24398383603394519     
  Cycle:    344 Energy:      -463.521154  Gnorm:      0.071154  CPU:    2.598
 Line minimisation2
 ALPHA BEFORE:   0.24398383603394519     
 ALPHA AFTER:   0.16556444638465523     
  Cycle:    345 Energy:      -463.522115  Gnorm:      0.086205  CPU:    2.606
 Perform trimming
 Line minimisation2
 ALPHA BEFORE:   0.16556444638465523     
 ALPHA AFTER:    7.9268908560673743E-002
  Cycle:    346 Energy:      -463.522674  Gnorm:      0.086046  CPU:    2.613
 Line minimisation2
 ALPHA BEFORE:    7.9268908560673743E-002
 ALPHA AFTER:   0.14895780627511276     
  Cycle:    347 Energy:      -463.523946  Gnorm:      0.121983  CPU:    2.623
 Perform trimming
 Line minimisation2
 ALPHA BEFORE:   0.14895780627511276     
 ALPHA AFTER:   0.47232581978086996     
  Cycle:    348 Energy:      -463.528814  Gnorm:      0.241195  CPU:    2.632
 Perform trimming
 Line minimisation2
 ALPHA BEFORE:   0.47232581978086996     
 ALPHA AFTER:   0.18431277106256355     
  Cycle:    349 Energy:      -463.533343  Gnorm:      0.233601  CPU:    2.640
 Line minimisation2
 ALPHA BEFORE:   0.18431277106256355     
 ALPHA AFTER:    3.3105082826903991E-002
  Cycle:    350 Energy:      -463.535425  Gnorm:      0.128031  CPU:    2.648
 Line minimisation2
 ALPHA BEFORE:    3.3105082826903991E-002
 ALPHA AFTER:   0.10271258118578817     
  Cycle:    351 Energy:      -463.537361  Gnorm:      0.086256  CPU:    2.655
 Line minimisation2
 ALPHA BEFORE:   0.10271258118578817     
 ALPHA AFTER:   0.14384533318559919     
  Cycle:    352 Energy:      -463.538595  Gnorm:      0.089331  CPU:    2.663
 Line minimisation2
 ALPHA BEFORE:   0.14384533318559919     
 ALPHA AFTER:   0.10939432229223882     
  Cycle:    353 Energy:      -463.539604  Gnorm:      0.060933  CPU:    2.671
 Line minimisation2
 ALPHA BEFORE:   0.10939432229223882     
 ALPHA AFTER:    6.3924690243770385E-002
  Cycle:    354 Energy:      -463.539881  Gnorm:      0.065250  CPU:    2.678
 Line minimisation2
 ALPHA BEFORE:    6.3924690243770385E-002
 ALPHA AFTER:   0.19342412960027766     
  Cycle:    355 Energy:      -463.541012  Gnorm:      0.069060  CPU:    2.688
 Line minimisation2
 ALPHA BEFORE:   0.19342412960027766     
 ALPHA AFTER:   0.21040529913123132     
  Cycle:    356 Energy:      -463.542168  Gnorm:      0.075656  CPU:    2.695
 Line minimisation2
 ALPHA BEFORE:   0.21040529913123132     
 ALPHA AFTER:    8.7126771461508754E-002
  Cycle:    357 Energy:      -463.542727  Gnorm:      0.099436  CPU:    2.703
 Perform trimming
 Line minimisation2
 ALPHA BEFORE:    8.7126771461508754E-002
 ALPHA AFTER:   0.11960143627643369     
  Cycle:    358 Energy:      -463.543825  Gnorm:      0.086786  CPU:    2.713
 Line minimisation2
 ALPHA BEFORE:   0.11960143627643369     
 ALPHA AFTER:   0.13006645589307772     
  Cycle:    359 Energy:      -463.544956  Gnorm:      0.093081  CPU:    2.720
 Line minimisation2
 ALPHA BEFORE:   0.13006645589307772     
 ALPHA AFTER:    5.2643422642126861E-002
  Cycle:    360 Energy:      -463.545486  Gnorm:      0.076451  CPU:    2.728
 Line minimisation2
 ALPHA BEFORE:    5.2643422642126861E-002
 ALPHA AFTER:   0.10140164795554263     
  Cycle:    361 Energy:      -463.546176  Gnorm:      0.080125  CPU:    2.736
 Line minimisation2
 ALPHA BEFORE:   0.10140164795554263     
 ALPHA AFTER:   0.16294551676978378     
  Cycle:    362 Energy:      -463.547363  Gnorm:      0.067321  CPU:    2.745
 Line minimisation2
 ALPHA BEFORE:   0.16294551676978378     
 ALPHA AFTER:   0.10596814320512354     
  Cycle:    363 Energy:      -463.547917  Gnorm:      0.095271  CPU:    2.753
 Perform trimming
 Line minimisation2
 ALPHA BEFORE:   0.10596814320512354     
 ALPHA AFTER:   0.10697866275594370     
  Cycle:    364 Energy:      -463.548691  Gnorm:      0.068900  CPU:    2.760
 Line minimisation2
 ALPHA BEFORE:   0.10697866275594370     
 ALPHA AFTER:   0.14066993558406107     
  Cycle:    365 Energy:      -463.549467  Gnorm:      0.063967  CPU:    2.768
 Line minimisation2
 ALPHA BEFORE:   0.14066993558406107     
 ALPHA AFTER:    9.2767724953917774E-002
  Cycle:    366 Energy:      -463.549909  Gnorm:      0.079854  CPU:    2.776
 Perform trimming
 Line minimisation2
 ALPHA BEFORE:    9.2767724953917774E-002
 ALPHA AFTER:   0.11720533680633144     
  Cycle:    367 Energy:      -463.550690  Gnorm:      0.098404  CPU:    2.783
 Perform trimming
 Line minimisation2
 ALPHA BEFORE:   0.11720533680633144     
 ALPHA AFTER:   0.15190012669375999     
  Cycle:    368 Energy:      -463.552308  Gnorm:      0.084573  CPU:    2.791
 Line minimisation2
 ALPHA BEFORE:   0.15190012669375999     
 ALPHA AFTER:   0.23782501944343770     
  Cycle:    369 Energy:      -463.554286  Gnorm:      0.193423  CPU:    2.800
 Line minimisation2
 ALPHA BEFORE:   0.23782501944343770     
 ALPHA AFTER:    2.9847726275161038E-002
  Cycle:    370 Energy:      -463.555558  Gnorm:      0.089621  CPU:    2.808
 Line minimisation2
 ALPHA BEFORE:    2.9847726275161038E-002
 ALPHA AFTER:   0.15836209331381573     
  Cycle:    371 Energy:      -463.557026  Gnorm:      0.093291  CPU:    2.816
 Line minimisation2
 ALPHA BEFORE:   0.15836209331381573     
 ALPHA AFTER:    9.7921680379534901E-002
  Cycle:    372 Energy:      -463.558010  Gnorm:      0.076467  CPU:    2.823
 Line minimisation2
 ALPHA BEFORE:    9.7921680379534901E-002
 ALPHA AFTER:    6.8461492491154824E-002
  Cycle:    373 Energy:      -463.558472  Gnorm:      0.071391  CPU:    2.831
 Line minimisation2
 ALPHA BEFORE:    6.8461492491154824E-002
 ALPHA AFTER:    3.4230746245577412E-002
  Cycle:    374 Energy:      -463.558793  Gnorm:      0.047220  CPU:    2.838
 Line minimisation2
 ALPHA BEFORE:    3.4230746245577412E-002
 ALPHA AFTER:    6.8669187137314805E-002
  Cycle:    375 Energy:      -463.558936  Gnorm:      0.048563  CPU:    2.846
 Line minimisation2
 ALPHA BEFORE:    6.8669187137314805E-002
 ALPHA AFTER:   0.12892338440404325     
  Cycle:    376 Energy:      -463.559290  Gnorm:      0.058475  CPU:    2.853
 Perform trimming
 Line minimisation2
 ALPHA BEFORE:   0.12892338440404325     
 ALPHA AFTER:   -3.4203773050725051E-004
  Cycle:    377 Energy:      -463.559290  Gnorm:      0.058475  CPU:    2.868
 Line minimisation2
 ALPHA BEFORE:   0.12892338440404325     
 ALPHA AFTER:   -1.3071934848359707E-004
  Cycle:    378 Energy:      -463.559290  Gnorm:      0.058475  CPU:    2.881
 Line minimisation2
 ALPHA BEFORE:   0.12892338440404325     
 ALPHA AFTER:   -1.3071934848359707E-004


  **** Conditions for a minimum have not been satisfied. However ****
  **** no lower point can be found - treat results with caution  ****
  **** unless gradient norm is small (less than 0.1)             ****


  Final energy =    -463.55928955 eV
  Final Gnorm  =       0.05847479

  Components of energy : 

--------------------------------------------------------------------------------
  Interatomic potentials     =          72.45690745 eV    
  Monopole - monopole (real) =        -286.39941621 eV    
  Monopole - monopole (recip)=        -249.61678079 eV    
  Monopole - monopole (total)=        -536.01619700 eV    
--------------------------------------------------------------------------------
  Total lattice energy       =        -463.55928955 eV    
--------------------------------------------------------------------------------
  Total lattice energy       =          -44726.3853 kJ/(mole unit cells)
--------------------------------------------------------------------------------

  Final fractional coordinates of atoms :

--------------------------------------------------------------------------------
   No.  Atomic        x           y          z          Radius
        Label       (Frac)      (Frac)     (Frac)       (Angs) 
--------------------------------------------------------------------------------
     1  O     c     0.000000    0.333330    0.800000    0.000000
     2  O     c     0.075574    0.214658    0.613768    0.000000
     3  O     c     0.512299    0.380458    0.542378    0.000000
     4  O     c     0.066313    0.606103    0.490659    0.000000
     5  O     c     0.158949    0.430005    0.215474    0.000000
     6  O     c     0.282684    0.907433    0.719495    0.000000
     7  O     c     0.809036    0.921577    0.430688    0.000000
     8  O     c     0.410973    0.207330    0.414762    0.000000
     9  O     c     0.030221    0.666956    0.002839    0.000000
    10  Sr    c     0.087824    0.286064    0.088015    0.000000
    11  Sr    c     0.975933    0.923184    0.890196    0.000000
    12  Sr    c     0.206552    0.035336    0.298210    0.000000
    13  Ti    c     0.722812    0.406633    0.459754    0.000000
    14  Ti    c     0.193816    0.193497    0.514057    0.000000
    15  Ti    c     0.180044    0.345499    0.709744    0.000000
--------------------------------------------------------------------------------

  Final Cartesian lattice vectors (Angstroms) :

        5.728756   -0.511752    0.339076
       -0.767628    3.414166   -0.492941
        0.847689   -0.821568   17.470109


  Final cell parameters and derivatives :

--------------------------------------------------------------------------------
       a            5.761554 Angstrom     dE/de1(xx)    -0.096310 eV/strain
       b            3.533946 Angstrom     dE/de2(yy)     0.109826 eV/strain
       c           17.509948 Angstrom     dE/de3(zz)     0.118102 eV/strain
       alpha      101.245635 Degrees      dE/de4(yz)     0.164974 eV/strain
       beta        83.625804 Degrees      dE/de5(xz)    -0.021945 eV/strain
       gamma      108.059202 Degrees      dE/de6(xy)    -0.006566 eV/strain
--------------------------------------------------------------------------------

  Primitive cell volume =           331.959946 Angs**3

  Density of cell =      2.753770 g/cm**3

  Non-primitive cell volume =           331.959946 Angs**3


  Final internal derivatives :

--------------------------------------------------------------------------------
   No.  Atomic          a             b             c           Radius
        Label          (eV)          (eV)          (eV)        (eV/Angs)
--------------------------------------------------------------------------------
      1 O     c       0.000000      0.000000      0.000000      0.000000
      2 O     c      -0.043373     -0.022148     -1.039611      0.000000
      3 O     c      -0.224608      0.079974      0.717054      0.000000
      4 O     c      -0.197068      0.288142      0.242820      0.000000
      5 O     c       0.098343      0.027733      0.769678      0.000000
      6 O     c      -0.237520      0.164298     -0.321279      0.000000
      7 O     c      -0.143173      0.012827     -0.167639      0.000000
      8 O     c       0.028684      0.176590     -0.706335      0.000000
      9 O     c       0.552998      0.491208      0.283452      0.000000
     10 Sr    c       0.392202      0.426514     -0.407508      0.000000
     11 Sr    c       0.350026      0.150382     -0.129229      0.000000
     12 Sr    c      -0.113205     -0.024108     -0.191156      0.000000
     13 Ti    c      -0.138456      0.271911      0.186191      0.000000
     14 Ti    c      -0.216077      0.057546     -0.135130      0.000000
     15 Ti    c      -0.137090     -0.219100      1.734085      0.000000
--------------------------------------------------------------------------------
  Maximum abs         0.552998      0.491208      1.734085      0.000000
--------------------------------------------------------------------------------


  Time to end of optimisation =       2.8944 seconds

 Exiting ------OPTIONS------

  Peak dynamic memory used =       0.55 MB 


  Timing analysis for GULP :

--------------------------------------------------------------------------------
  Task / Subroutine                                          Time (Seconds)
--------------------------------------------------------------------------------
  Calculation of reciprocal space energy and derivatives          0.1544
  Calculation of real space energy and derivatives                2.7191
  Global summation overhead                                       0.0010
--------------------------------------------------------------------------------
  Total CPU time                                                  2.8944
--------------------------------------------------------------------------------


  Job Finished at 16:25.08 24th January    2020                               

