********************************************************************************
*                       GENERAL UTILITY LATTICE PROGRAM                        *
*                                 Julian Gale                                  *
*                       Curtin Institute for Computation                       *
*                           Department of Chemistry                            *
*                    Curtin University, Western Australia                      *
********************************************************************************
* Version = 5.1.1 * Last modified =  25th August 2019                          *
********************************************************************************
*  optimise     - perform optimisation run                                     *
*  conp         - constant pressure calculation                                *
*  nosymmetry   - turn off symmetry after initial structure generation         *
*  full         - generate full unit cell when symmetry is removed             *
*  conjugate    - use conjugate gradients minimiser                            *
********************************************************************************
* ASE calculation                                                              *
********************************************************************************


  Job Started  at 16:32.28 24th January    2020                               

  Number of CPUs =     1


  Total number of configurations input =      1

********************************************************************************
*  Input for Configuration =   1                                               *
********************************************************************************

  Formula = O9Sr3Ti3                                                    

  Number of irreducible atoms/shells =      15


  Total number atoms/shells =      15

  Dimensionality = 3               :  Bulk   



  Cartesian lattice vectors (Angstroms) :

        4.000000    0.000000    0.000000
        0.000000    6.000000    0.000000
        0.000000    0.000000   10.000000

  Cell parameters (Angstroms/Degrees):

  a =       4.0000    alpha =  90.0000
  b =       6.0000    beta  =  90.0000
  c =      10.0000    gamma =  90.0000

  Initial cell volume =         240.000000 Angs**3

  Temperature of configuration =  0.000     K 

  Pressure of configuration =         0.000 GPa 

  Fractional coordinates of asymmetric unit :

--------------------------------------------------------------------------------
   No.  Atomic       x           y          z         Charge      Occupancy
        Label      (Frac)      (Frac)     (Frac)        (e)         (Frac)  
--------------------------------------------------------------------------------
      1 O     c    0.000000    0.333330    0.800000    -2.00000    1.000000    
      2 O     c    0.000000 *  0.000000 *  0.800000 *  -2.00000    1.000000    
      3 O     c    0.500000 *  0.666670 *  0.600000 *  -2.00000    1.000000    
      4 O     c    0.000000 *  0.666670 *  0.600000 *  -2.00000    1.000000    
      5 O     c    0.000000 *  0.333330 *  0.000000 *  -2.00000    1.000000    
      6 O     c    0.000000 *  0.666670 *  0.800000 *  -2.00000    1.000000    
      7 O     c    0.000000 *  0.000000 *  0.200000 *  -2.00000    1.000000    
      8 O     c    0.500000 *  0.333330 *  0.200000 *  -2.00000    1.000000    
      9 O     c    0.000000 *  0.000000 *  0.000000 *  -2.00000    1.000000    
     10 Sr    c    0.750000 *  0.166670 *  0.900000 *   2.00000    1.000000    
     11 Sr    c    0.250000 *  0.166670 *  0.900000 *   2.00000    1.000000    
     12 Sr    c    0.250000 *  0.166670 *  0.100000 *   2.00000    1.000000    
     13 Ti    c    0.750000 *  0.166670 *  0.700000 *   4.00000    1.000000    
     14 Ti    c    0.250000 *  0.166670 *  0.500000 *   4.00000    1.000000    
     15 Ti    c    0.250000 *  0.166670 *  0.700000 *   4.00000    1.000000    
--------------------------------------------------------------------------------



********************************************************************************
*  General input information                                                   *
********************************************************************************

  Species output for all configurations : 

--------------------------------------------------------------------------------
  Species    Type    Atomic    Atomic    Charge       Radii (Angs)     Library
                     Number     Mass       (e)     Cova   Ionic  VDW   Symbol
--------------------------------------------------------------------------------
    O        Core        8      16.00  -2.000000   0.730  0.000  1.360          
    Sr       Core       38      87.62   2.000000   1.120  0.000  1.670          
    Ti       Core       22      47.88   4.000000   1.470  0.000  2.190          
--------------------------------------------------------------------------------


  Lattice summation method               =    Ewald          (3-D)
                                         =    Parry          (2-D)
                                         =    Saunders et al (1-D)
  Accuracy factor for lattice sums       =   12.000


  Time limit = Infinity

  Maximum range for interatomic potentials =    100000.000000 Angstroms

  General interatomic potentials :

--------------------------------------------------------------------------------
Atom  Types   Potential      Parameter       Value         Units   Cutoffs(Ang)
  1     2                                                            Min /  Max 
--------------------------------------------------------------------------------
O    c Sr   c Buckingham    Buckingham A     1952.3900    eV        0.000 10.000
                            Buckingham rho  0.33685000    Ang       
                            Buckingham C     19.220000    eV*Ang^6  
--------------------------------------------------------------------------------
O    c Ti   c Buckingham    Buckingham A     4590.7279    eV        0.000 10.000
                            Buckingham rho  0.26100000    Ang       
                            Buckingham C     0.0000000    eV*Ang^6  
--------------------------------------------------------------------------------
O    c O    c Buckingham    Buckingham A     1388.7700    eV        0.000 10.000
                            Buckingham rho  0.36262000    Ang       
                            Buckingham C     175.00000    eV*Ang^6  
--------------------------------------------------------------------------------
 Calling ------OPTIONS------

********************************************************************************
*  Output for configuration   1                                                *
********************************************************************************


  Components of energy : 

--------------------------------------------------------------------------------
  Interatomic potentials     =         184.55920138 eV    
  Monopole - monopole (real) =          -3.58671899 eV    
  Monopole - monopole (recip)=        -195.13406381 eV    
  Monopole - monopole (total)=        -198.72078279 eV    
--------------------------------------------------------------------------------
  Total lattice energy       =         -14.16158142 eV    
--------------------------------------------------------------------------------
  Total lattice energy       =           -1366.3761 kJ/(mole unit cells)
--------------------------------------------------------------------------------


  Number of variables =       48

  Maximum number of calculations  =          1000
  Maximum Hessian update interval =            10
  Maximum step size               =   0.001000000
  Maximum parameter tolerance     =   0.000010000
  Maximum function  tolerance     =   0.000010000
  Maximum gradient  tolerance     =   0.001000000
  Maximum gradient  component     =   0.010000000

  Cell parameters to be optimised using strains

  Conjugate gradient optimiser to be used

  Lower half triangular hessian to be used

  Switch max step size to       0.10000000 when gnorm is less than    10.000000

  Start of bulk optimisation :

  Cycle:      0 Energy:       -14.161581  Gnorm:     35.512526  CPU:    0.012
 Perform trimming
 Line minimisation2
 ALPHA BEFORE:    1.0000000000000000     
 ALPHA AFTER:    5.0000000000000010E-003
  Cycle:      1 Energy:       -16.205194  Gnorm:     35.238355  CPU:    0.023
 Perform trimming
 Line minimisation2
 ALPHA BEFORE:    5.0000000000000010E-003
 ALPHA AFTER:    8.0000000000000019E-003
  Cycle:      2 Energy:       -21.058467  Gnorm:     34.588746  CPU:    0.034
 Perform trimming
 Line minimisation2
 ALPHA BEFORE:    8.0000000000000019E-003
 ALPHA AFTER:    8.0000000000000019E-003
  Cycle:      3 Energy:       -28.170069  Gnorm:     33.639220  CPU:    0.041
 Perform trimming
 Line minimisation2
 ALPHA BEFORE:    8.0000000000000019E-003
 ALPHA AFTER:    8.0000000000000019E-003
  Cycle:      4 Energy:       -38.470861  Gnorm:     32.271464  CPU:    0.048
 Perform trimming
 Line minimisation2
 ALPHA BEFORE:    8.0000000000000019E-003
 ALPHA AFTER:    8.0000000000000019E-003
  Cycle:      5 Energy:       -53.139505  Gnorm:     30.349267  CPU:    0.054
 Line minimisation2
 ALPHA BEFORE:    8.0000000000000019E-003
 ALPHA AFTER:    8.0000000000000019E-003
  Cycle:      6 Energy:       -68.762438  Gnorm:     28.363884  CPU:    0.061
 Line minimisation2
 ALPHA BEFORE:    8.0000000000000019E-003
 ALPHA AFTER:    8.0000000000000019E-003
  Cycle:      7 Energy:       -82.239064  Gnorm:     26.729031  CPU:    0.067
 Line minimisation2
 ALPHA BEFORE:    8.0000000000000019E-003
 ALPHA AFTER:    8.0000000000000019E-003
  Cycle:      8 Energy:       -94.334348  Gnorm:     25.336105  CPU:    0.074
 Line minimisation2
 ALPHA BEFORE:    8.0000000000000019E-003
 ALPHA AFTER:    8.0000000000000019E-003
  Cycle:      9 Energy:      -105.275420  Gnorm:     24.145591  CPU:    0.080
 Line minimisation2
 ALPHA BEFORE:    8.0000000000000019E-003
 ALPHA AFTER:    8.0000000000000019E-003
  Cycle:     10 Energy:      -115.723621  Gnorm:     23.071993  CPU:    0.086
 Line minimisation2
 ALPHA BEFORE:    8.0000000000000019E-003
 ALPHA AFTER:    8.0000000000000019E-003
  Cycle:     11 Energy:      -124.867957  Gnorm:     22.187161  CPU:    0.093
 Line minimisation2
 ALPHA BEFORE:    8.0000000000000019E-003
 ALPHA AFTER:    8.0000000000000019E-003
  Cycle:     12 Energy:      -133.396952  Gnorm:     21.403863  CPU:    0.100
 Line minimisation2
 ALPHA BEFORE:    8.0000000000000019E-003
 ALPHA AFTER:    8.0000000000000019E-003
  Cycle:     13 Energy:      -141.359706  Gnorm:     20.706898  CPU:    0.106
 Line minimisation2
 ALPHA BEFORE:    8.0000000000000019E-003
 ALPHA AFTER:    8.0000000000000019E-003
  Cycle:     14 Energy:      -148.834169  Gnorm:     20.080003  CPU:    0.113
 Line minimisation2
 ALPHA BEFORE:    8.0000000000000019E-003
 ALPHA AFTER:    8.0000000000000019E-003
  Cycle:     15 Energy:      -155.879619  Gnorm:     19.510521  CPU:    0.119
 Line minimisation2
 ALPHA BEFORE:    8.0000000000000019E-003
 ALPHA AFTER:    8.0000000000000019E-003
  Cycle:     16 Energy:      -162.543482  Gnorm:     18.988272  CPU:    0.126
 Line minimisation2
 ALPHA BEFORE:    8.0000000000000019E-003
 ALPHA AFTER:    8.0000000000000019E-003
  Cycle:     17 Energy:      -168.864294  Gnorm:     18.505027  CPU:    0.133
 Line minimisation2
 ALPHA BEFORE:    8.0000000000000019E-003
 ALPHA AFTER:    8.0000000000000019E-003
  Cycle:     18 Energy:      -174.873637  Gnorm:     18.054004  CPU:    0.139
 Line minimisation2
 ALPHA BEFORE:    8.0000000000000019E-003
 ALPHA AFTER:    8.0000000000000019E-003
  Cycle:     19 Energy:      -180.598710  Gnorm:     17.629458  CPU:    0.146
 Line minimisation2
 ALPHA BEFORE:    8.0000000000000019E-003
 ALPHA AFTER:    8.0000000000000019E-003
  Cycle:     20 Energy:      -186.186172  Gnorm:     17.217091  CPU:    0.152
 Line minimisation2
 ALPHA BEFORE:    8.0000000000000019E-003
 ALPHA AFTER:    8.0000000000000019E-003
  Cycle:     21 Energy:      -191.391244  Gnorm:     16.832485  CPU:    0.159
 Line minimisation2
 ALPHA BEFORE:    8.0000000000000019E-003
 ALPHA AFTER:    8.0000000000000019E-003
  Cycle:     22 Energy:      -196.371693  Gnorm:     16.461152  CPU:    0.165
 Line minimisation2
 ALPHA BEFORE:    8.0000000000000019E-003
 ALPHA AFTER:    8.0000000000000019E-003
  Cycle:     23 Energy:      -201.133015  Gnorm:     16.100400  CPU:    0.171
 Line minimisation2
 ALPHA BEFORE:    8.0000000000000019E-003
 ALPHA AFTER:    8.0000000000000019E-003
  Cycle:     24 Energy:      -205.686262  Gnorm:     15.747448  CPU:    0.178
 Line minimisation2
 ALPHA BEFORE:    8.0000000000000019E-003
 ALPHA AFTER:    8.0000000000000019E-003
  Cycle:     25 Energy:      -210.038516  Gnorm:     15.399994  CPU:    0.184
 Line minimisation2
 ALPHA BEFORE:    8.0000000000000019E-003
 ALPHA AFTER:    8.0000000000000019E-003
  Cycle:     26 Energy:      -214.197209  Gnorm:     15.056099  CPU:    0.190
 Line minimisation2
 ALPHA BEFORE:    8.0000000000000019E-003
 ALPHA AFTER:    5.0000000000000010E-003
  Cycle:     27 Energy:      -216.689825  Gnorm:     14.843733  CPU:    0.194
 Line minimisation2
 ALPHA BEFORE:    5.0000000000000010E-003
 ALPHA AFTER:    5.0000000000000010E-003
  Cycle:     28 Energy:      -219.131267  Gnorm:     14.630071  CPU:    0.199
 Line minimisation2
 ALPHA BEFORE:    5.0000000000000010E-003
 ALPHA AFTER:    5.0000000000000010E-003
  Cycle:     29 Energy:      -221.500261  Gnorm:     14.416831  CPU:    0.203
 Line minimisation2
 ALPHA BEFORE:    5.0000000000000010E-003
 ALPHA AFTER:    5.0000000000000010E-003
  Cycle:     30 Energy:      -223.832113  Gnorm:     14.200693  CPU:    0.208
 Line minimisation2
 ALPHA BEFORE:    5.0000000000000010E-003
 ALPHA AFTER:    5.0000000000000010E-003
  Cycle:     31 Energy:      -226.060083  Gnorm:     13.988013  CPU:    0.212
 Line minimisation2
 ALPHA BEFORE:    5.0000000000000010E-003
 ALPHA AFTER:    5.0000000000000010E-003
  Cycle:     32 Energy:      -228.221238  Gnorm:     13.775508  CPU:    0.216
 Line minimisation2
 ALPHA BEFORE:    5.0000000000000010E-003
 ALPHA AFTER:    5.0000000000000010E-003
  Cycle:     33 Energy:      -230.315119  Gnorm:     13.563398  CPU:    0.221
 Line minimisation2
 ALPHA BEFORE:    5.0000000000000010E-003
 ALPHA AFTER:    5.0000000000000010E-003
  Cycle:     34 Energy:      -232.343512  Gnorm:     13.351869  CPU:    0.225
 Line minimisation2
 ALPHA BEFORE:    5.0000000000000010E-003
 ALPHA AFTER:    5.0000000000000010E-003
  Cycle:     35 Energy:      -234.307280  Gnorm:     13.141190  CPU:    0.229
 Line minimisation2
 ALPHA BEFORE:    5.0000000000000010E-003
 ALPHA AFTER:    5.0000000000000010E-003
  Cycle:     36 Energy:      -236.207466  Gnorm:     12.931665  CPU:    0.234
 Line minimisation2
 ALPHA BEFORE:    5.0000000000000010E-003
 ALPHA AFTER:    5.0000000000000010E-003
  Cycle:     37 Energy:      -238.046268  Gnorm:     12.723605  CPU:    0.238
 Line minimisation2
 ALPHA BEFORE:    5.0000000000000010E-003
 ALPHA AFTER:    5.0000000000000010E-003
  Cycle:     38 Energy:      -239.824870  Gnorm:     12.517442  CPU:    0.242
 Line minimisation2
 ALPHA BEFORE:    5.0000000000000010E-003
 ALPHA AFTER:    5.0000000000000010E-003
  Cycle:     39 Energy:      -241.545087  Gnorm:     12.313559  CPU:    0.247
 Line minimisation2
 ALPHA BEFORE:    5.0000000000000010E-003
 ALPHA AFTER:    5.0000000000000010E-003
  Cycle:     40 Energy:      -243.235127  Gnorm:     12.109089  CPU:    0.251
 Line minimisation2
 ALPHA BEFORE:    5.0000000000000010E-003
 ALPHA AFTER:    5.0000000000000010E-003
  Cycle:     41 Energy:      -244.841788  Gnorm:     11.911263  CPU:    0.255
 Line minimisation2
 ALPHA BEFORE:    5.0000000000000010E-003
 ALPHA AFTER:    5.0000000000000010E-003
  Cycle:     42 Energy:      -246.396284  Gnorm:     11.716926  CPU:    0.260
 Line minimisation2
 ALPHA BEFORE:    5.0000000000000010E-003
 ALPHA AFTER:    5.0000000000000010E-003
  Cycle:     43 Energy:      -247.899229  Gnorm:     11.526606  CPU:    0.264
 Line minimisation2
 ALPHA BEFORE:    5.0000000000000010E-003
 ALPHA AFTER:    5.0000000000000010E-003
  Cycle:     44 Energy:      -249.352677  Gnorm:     11.340693  CPU:    0.268
 Line minimisation2
 ALPHA BEFORE:    5.0000000000000010E-003
 ALPHA AFTER:    5.0000000000000010E-003
  Cycle:     45 Energy:      -250.758368  Gnorm:     11.159559  CPU:    0.273
 Line minimisation2
 ALPHA BEFORE:    5.0000000000000010E-003
 ALPHA AFTER:    5.0000000000000010E-003
  Cycle:     46 Energy:      -252.119311  Gnorm:     10.983454  CPU:    0.277
 Line minimisation2
 ALPHA BEFORE:    5.0000000000000010E-003
 ALPHA AFTER:    5.0000000000000010E-003
  Cycle:     47 Energy:      -253.436951  Gnorm:     10.812714  CPU:    0.282
 Line minimisation2
 ALPHA BEFORE:    5.0000000000000010E-003
 ALPHA AFTER:    5.0000000000000010E-003
  Cycle:     48 Energy:      -254.713202  Gnorm:     10.647503  CPU:    0.286
 Line minimisation2
 ALPHA BEFORE:    5.0000000000000010E-003
 ALPHA AFTER:    5.0000000000000010E-003
  Cycle:     49 Energy:      -255.950228  Gnorm:     10.488013  CPU:    0.291
 Line minimisation2
 ALPHA BEFORE:    5.0000000000000010E-003
 ALPHA AFTER:    5.0000000000000010E-003
  Cycle:     50 Energy:      -257.167333  Gnorm:     10.332072  CPU:    0.295
 Line minimisation2
 ALPHA BEFORE:    5.0000000000000010E-003
 ALPHA AFTER:    5.0000000000000010E-003
  Cycle:     51 Energy:      -258.330790  Gnorm:     10.184500  CPU:    0.299
 Line minimisation2
 ALPHA BEFORE:    5.0000000000000010E-003
 ALPHA AFTER:    5.0000000000000010E-003
  Cycle:     52 Energy:      -259.461439  Gnorm:     10.042800  CPU:    0.303
 Line minimisation2
 ALPHA BEFORE:    5.0000000000000010E-003
 ALPHA AFTER:    5.0000000000000010E-003
  Cycle:     53 Energy:      -260.560718  Gnorm:      9.907018  CPU:    0.308
 Line minimisation2
 ALPHA BEFORE:    5.0000000000000010E-003
 ALPHA AFTER:   0.48292512545290445     
  Cycle:     54 Energy:      -303.451351  Gnorm:     12.650272  CPU:    0.314
 Perform trimming
 Line minimisation2
 ALPHA BEFORE:   0.48292512545290445     
 ALPHA AFTER:   0.58241931632311339     
  Cycle:     55 Energy:      -358.518813  Gnorm:     10.127248  CPU:    0.319
 Line minimisation2
 ALPHA BEFORE:   0.58241931632311339     
 ALPHA AFTER:   0.14192827815479167     
  Cycle:     56 Energy:      -378.609117  Gnorm:      8.537637  CPU:    0.323
 Line minimisation2
 ALPHA BEFORE:   0.14192827815479167     
 ALPHA AFTER:   0.16923375622581313     
  Cycle:     57 Energy:      -393.572041  Gnorm:      6.198090  CPU:    0.327
 Line minimisation2
 ALPHA BEFORE:   0.16923375622581313     
 ALPHA AFTER:   0.33259338607503353     
  Cycle:     58 Energy:      -407.723339  Gnorm:      6.658943  CPU:    0.331
 Line minimisation2
 ALPHA BEFORE:   0.33259338607503353     
 ALPHA AFTER:   0.20011815082080886     
  Cycle:     59 Energy:      -417.336434  Gnorm:      5.712757  CPU:    0.334
 Line minimisation2
 ALPHA BEFORE:   0.20011815082080886     
 ALPHA AFTER:   0.12801542690499582     
  Cycle:     60 Energy:      -422.145943  Gnorm:      5.614940  CPU:    0.337
 Line minimisation2
 ALPHA BEFORE:   0.12801542690499582     
 ALPHA AFTER:   0.10950595902579593     
  Cycle:     61 Energy:      -426.052341  Gnorm:      3.952867  CPU:    0.340
 Line minimisation2
 ALPHA BEFORE:   0.10950595902579593     
 ALPHA AFTER:   0.12919621955291158     
  Cycle:     62 Energy:      -428.556123  Gnorm:      4.999562  CPU:    0.344
 Perform trimming
 Line minimisation2
 ALPHA BEFORE:   0.12919621955291158     
 ALPHA AFTER:   0.11240776828444438     
  Cycle:     63 Energy:      -431.189601  Gnorm:      4.763910  CPU:    0.347
 Line minimisation2
 ALPHA BEFORE:   0.11240776828444438     
 ALPHA AFTER:   0.10093644933994683     
  Cycle:     64 Energy:      -433.272070  Gnorm:      5.610248  CPU:    0.350
 Line minimisation2
 ALPHA BEFORE:   0.10093644933994683     
 ALPHA AFTER:    6.5010178317590706E-002
  Cycle:     65 Energy:      -435.549362  Gnorm:      3.967245  CPU:    0.353
 Line minimisation2
 ALPHA BEFORE:    6.5010178317590706E-002
 ALPHA AFTER:    7.6552830880014258E-002
  Cycle:     66 Energy:      -436.933368  Gnorm:      3.265666  CPU:    0.356
 Line minimisation2
 ALPHA BEFORE:    7.6552830880014258E-002
 ALPHA AFTER:   0.12922846473965111     
  Cycle:     67 Energy:      -438.508519  Gnorm:      3.253231  CPU:    0.360
 Line minimisation2
 ALPHA BEFORE:   0.12922846473965111     
 ALPHA AFTER:    8.0355002985822724E-002
  Cycle:     68 Energy:      -439.462494  Gnorm:      3.361546  CPU:    0.363
 Line minimisation2
 ALPHA BEFORE:    8.0355002985822724E-002
 ALPHA AFTER:   0.15962776150948840     
  Cycle:     69 Energy:      -441.494821  Gnorm:      3.443908  CPU:    0.367
 Line minimisation2
 ALPHA BEFORE:   0.15962776150948840     
 ALPHA AFTER:    6.3366747930227146E-002
  Cycle:     70 Energy:      -442.391472  Gnorm:      2.127003  CPU:    0.370
 Line minimisation2
 ALPHA BEFORE:    6.3366747930227146E-002
 ALPHA AFTER:   0.10320684036899373     
  Cycle:     71 Energy:      -442.906907  Gnorm:      1.865915  CPU:    0.373
 Line minimisation2
 ALPHA BEFORE:   0.10320684036899373     
 ALPHA AFTER:   0.10002171742706724     
  Cycle:     72 Energy:      -443.306472  Gnorm:      2.211282  CPU:    0.377
 Perform trimming
 Line minimisation2
 ALPHA BEFORE:   0.10002171742706724     
 ALPHA AFTER:   0.10699046937003392     
  Cycle:     73 Energy:      -443.843818  Gnorm:      2.069012  CPU:    0.380
 Line minimisation2
 ALPHA BEFORE:   0.10699046937003392     
 ALPHA AFTER:   0.15349523468501697     
  Cycle:     74 Energy:      -444.601075  Gnorm:      2.893631  CPU:    0.384
 Perform trimming
 Line minimisation2
 ALPHA BEFORE:   0.15349523468501697     
 ALPHA AFTER:   0.24463794846005169     
  Cycle:     75 Energy:      -446.188656  Gnorm:      2.411557  CPU:    0.388
 Line minimisation2
 ALPHA BEFORE:   0.24463794846005169     
 ALPHA AFTER:   0.14313950479188750     
  Cycle:     76 Energy:      -447.158379  Gnorm:      3.643184  CPU:    0.391
 Perform trimming
 Line minimisation2
 ALPHA BEFORE:   0.14313950479188750     
 ALPHA AFTER:   0.13561145364898436     
  Cycle:     77 Energy:      -448.367012  Gnorm:      2.262574  CPU:    0.394
 Line minimisation2
 ALPHA BEFORE:   0.13561145364898436     
 ALPHA AFTER:    8.4364019481239713E-002
  Cycle:     78 Energy:      -448.862150  Gnorm:      1.828965  CPU:    0.397
 Line minimisation2
 ALPHA BEFORE:    8.4364019481239713E-002
 ALPHA AFTER:    6.8005405256169091E-002
  Cycle:     79 Energy:      -449.122624  Gnorm:      1.480101  CPU:    0.400
 Line minimisation2
 ALPHA BEFORE:    6.8005405256169091E-002
 ALPHA AFTER:    5.8113929686344622E-002
  Cycle:     80 Energy:      -449.269311  Gnorm:      1.094253  CPU:    0.403
 Line minimisation2
 ALPHA BEFORE:    5.8113929686344622E-002
 ALPHA AFTER:    7.1971494055065671E-002
  Cycle:     81 Energy:      -449.371356  Gnorm:      1.068917  CPU:    0.407
 Line minimisation2
 ALPHA BEFORE:    7.1971494055065671E-002
 ALPHA AFTER:   0.20676861178638048     
  Cycle:     82 Energy:      -449.639786  Gnorm:      2.224346  CPU:    0.410
 Perform trimming
 Line minimisation2
 ALPHA BEFORE:   0.20676861178638048     
 ALPHA AFTER:   0.19046634416729186     
  Cycle:     83 Energy:      -449.992645  Gnorm:      1.221432  CPU:    0.414
 Line minimisation2
 ALPHA BEFORE:   0.19046634416729186     
 ALPHA AFTER:   0.11627859036949748     
  Cycle:     84 Energy:      -450.185681  Gnorm:      1.468479  CPU:    0.417
 Perform trimming
 Line minimisation2
 ALPHA BEFORE:   0.11627859036949748     
 ALPHA AFTER:    7.6236710638504818E-002
  Cycle:     85 Energy:      -450.336706  Gnorm:      1.057836  CPU:    0.420
 Line minimisation2
 ALPHA BEFORE:    7.6236710638504818E-002
 ALPHA AFTER:   0.13585252054053090     
  Cycle:     86 Energy:      -450.515594  Gnorm:      1.672672  CPU:    0.424
 Perform trimming
 Line minimisation2
 ALPHA BEFORE:   0.13585252054053090     
 ALPHA AFTER:   0.12707875533330459     
  Cycle:     87 Energy:      -450.720109  Gnorm:      1.524530  CPU:    0.427
 Line minimisation2
 ALPHA BEFORE:   0.12707875533330459     
 ALPHA AFTER:    9.4790387311849703E-002
  Cycle:     88 Energy:      -450.971085  Gnorm:      1.858064  CPU:    0.430
 Perform trimming
 Line minimisation2
 ALPHA BEFORE:    9.4790387311849703E-002
 ALPHA AFTER:   0.10462661759903080     
  Cycle:     89 Energy:      -451.293575  Gnorm:      1.470676  CPU:    0.434
 Line minimisation2
 ALPHA BEFORE:   0.10462661759903080     
 ALPHA AFTER:    5.6509146404368431E-002
  Cycle:     90 Energy:      -451.435325  Gnorm:      1.105345  CPU:    0.437
 Line minimisation2
 ALPHA BEFORE:    5.6509146404368431E-002
 ALPHA AFTER:    4.9573171055239867E-002
  Cycle:     91 Energy:      -451.502784  Gnorm:      0.752907  CPU:    0.440
 Line minimisation2
 ALPHA BEFORE:    4.9573171055239867E-002
 ALPHA AFTER:   0.20038099595688041     
  Cycle:     92 Energy:      -451.629312  Gnorm:      1.475833  CPU:    0.443
 Perform trimming
 Line minimisation2
 ALPHA BEFORE:   0.20038099595688041     
 ALPHA AFTER:   0.30019049797844022     
  Cycle:     93 Energy:      -451.948143  Gnorm:      1.602012  CPU:    0.447
 Perform trimming
 Line minimisation2
 ALPHA BEFORE:   0.30019049797844022     
 ALPHA AFTER:    9.1655075715614001E-002
  Cycle:     94 Energy:      -452.224033  Gnorm:      1.570280  CPU:    0.451
 Line minimisation2
 ALPHA BEFORE:    9.1655075715614001E-002
 ALPHA AFTER:    6.8268145622499887E-002
  Cycle:     95 Energy:      -452.417698  Gnorm:      1.396876  CPU:    0.454
 Line minimisation2
 ALPHA BEFORE:    6.8268145622499887E-002
 ALPHA AFTER:   0.21825732830003330     
  Cycle:     96 Energy:      -452.902149  Gnorm:      2.259909  CPU:    0.457
 Perform trimming
 Line minimisation2
 ALPHA BEFORE:   0.21825732830003330     
 ALPHA AFTER:   0.11696541403186902     
  Cycle:     97 Energy:      -453.265640  Gnorm:      2.525198  CPU:    0.460
 Line minimisation2
 ALPHA BEFORE:   0.11696541403186902     
 ALPHA AFTER:   0.12934250248171297     
  Cycle:     98 Energy:      -454.228497  Gnorm:      2.964864  CPU:    0.464
 Perform trimming
 Line minimisation2
 ALPHA BEFORE:   0.12934250248171297     
 ALPHA AFTER:   0.12247142924650703     
  Cycle:     99 Energy:      -455.115837  Gnorm:      3.237944  CPU:    0.467
 Line minimisation2
 ALPHA BEFORE:   0.12247142924650703     
 ALPHA AFTER:    4.8153923030899590E-002
  Cycle:    100 Energy:      -455.660983  Gnorm:      2.221529  CPU:    0.470
 Line minimisation2
 ALPHA BEFORE:    4.8153923030899590E-002
 ALPHA AFTER:    3.7269798027378426E-002
  Cycle:    101 Energy:      -455.873775  Gnorm:      1.179070  CPU:    0.473
 Line minimisation2
 ALPHA BEFORE:    3.7269798027378426E-002
 ALPHA AFTER:   0.10879759881698269     
  Cycle:    102 Energy:      -456.050542  Gnorm:      1.481331  CPU:    0.477
 Perform trimming
 Line minimisation2
 ALPHA BEFORE:   0.10879759881698269     
 ALPHA AFTER:   0.11625611674581102     
  Cycle:    103 Energy:      -456.284393  Gnorm:      1.212234  CPU:    0.481
 Line minimisation2
 ALPHA BEFORE:   0.11625611674581102     
 ALPHA AFTER:   0.19912686704449023     
  Cycle:    104 Energy:      -456.623572  Gnorm:      2.200237  CPU:    0.484
 Perform trimming
 Line minimisation2
 ALPHA BEFORE:   0.19912686704449023     
 ALPHA AFTER:   0.14139542740519850     
  Cycle:    105 Energy:      -456.940536  Gnorm:      2.161128  CPU:    0.487
 Line minimisation2
 ALPHA BEFORE:   0.14139542740519850     
 ALPHA AFTER:    9.9924502882608179E-002
  Cycle:    106 Energy:      -457.480207  Gnorm:      2.031416  CPU:    0.491
 Line minimisation2
 ALPHA BEFORE:    9.9924502882608179E-002
 ALPHA AFTER:    7.2118910190356031E-002
  Cycle:    107 Energy:      -457.836117  Gnorm:      2.455188  CPU:    0.495
 Perform trimming
 Line minimisation2
 ALPHA BEFORE:    7.2118910190356031E-002
 ALPHA AFTER:   0.17961449973033289     
  Cycle:    108 Energy:      -459.014174  Gnorm:      3.158292  CPU:    0.500
 Perform trimming
 Line minimisation2
 ALPHA BEFORE:   0.17961449973033289     
 ALPHA AFTER:    3.6756584516070723E-002
  Cycle:    109 Energy:      -459.399818  Gnorm:      1.505802  CPU:    0.505
 Line minimisation2
 ALPHA BEFORE:    3.6756584516070723E-002
 ALPHA AFTER:   0.12071383741726946     
  Cycle:    110 Energy:      -459.714374  Gnorm:      1.852606  CPU:    0.509
 Perform trimming
 Line minimisation2
 ALPHA BEFORE:   0.12071383741726946     
 ALPHA AFTER:    6.0648442749326452E-002
  Cycle:    111 Energy:      -459.895900  Gnorm:      1.049242  CPU:    0.513
 Line minimisation2
 ALPHA BEFORE:    6.0648442749326452E-002
 ALPHA AFTER:   0.10955794587358707     
  Cycle:    112 Energy:      -460.034194  Gnorm:      0.835959  CPU:    0.518
 Line minimisation2
 ALPHA BEFORE:   0.10955794587358707     
 ALPHA AFTER:   0.11365782786643823     
  Cycle:    113 Energy:      -460.125341  Gnorm:      1.058587  CPU:    0.522
 Perform trimming
 Line minimisation2
 ALPHA BEFORE:   0.11365782786643823     
 ALPHA AFTER:   0.10087805487918892     
  Cycle:    114 Energy:      -460.231634  Gnorm:      1.019299  CPU:    0.526
 Line minimisation2
 ALPHA BEFORE:   0.10087805487918892     
 ALPHA AFTER:   0.19277153877648667     
  Cycle:    115 Energy:      -460.462742  Gnorm:      1.915010  CPU:    0.530
 Perform trimming
 Line minimisation2
 ALPHA BEFORE:   0.19277153877648667     
 ALPHA AFTER:   0.25518824413924179     
  Cycle:    116 Energy:      -460.876222  Gnorm:      1.795317  CPU:    0.535
 Line minimisation2
 ALPHA BEFORE:   0.25518824413924179     
 ALPHA AFTER:    7.9650534940488196E-002
  Cycle:    117 Energy:      -461.172877  Gnorm:      1.743326  CPU:    0.539
 Line minimisation2
 ALPHA BEFORE:    7.9650534940488196E-002
 ALPHA AFTER:    4.6248034574555591E-002
  Cycle:    118 Energy:      -461.336446  Gnorm:      0.939213  CPU:    0.543
 Line minimisation2
 ALPHA BEFORE:    4.6248034574555591E-002
 ALPHA AFTER:   0.22312401728727782     
  Cycle:    119 Energy:      -461.569403  Gnorm:      1.472508  CPU:    0.548
 Line minimisation2
 ALPHA BEFORE:   0.22312401728727782     
 ALPHA AFTER:    3.3412755879026618E-002
  Cycle:    120 Energy:      -461.653234  Gnorm:      0.785141  CPU:    0.553
 Line minimisation2
 ALPHA BEFORE:    3.3412755879026618E-002
 ALPHA AFTER:   0.10709490471103754     
  Cycle:    121 Energy:      -461.730660  Gnorm:      0.894409  CPU:    0.557
 Perform trimming
 Line minimisation2
 ALPHA BEFORE:   0.10709490471103754     
 ALPHA AFTER:    8.4102539626186842E-002
  Cycle:    122 Energy:      -461.801898  Gnorm:      1.005223  CPU:    0.562
 Line minimisation2
 ALPHA BEFORE:    8.4102539626186842E-002
 ALPHA AFTER:   0.12887833932527543     
  Cycle:    123 Energy:      -461.951581  Gnorm:      1.419441  CPU:    0.566
 Perform trimming
 Line minimisation2
 ALPHA BEFORE:   0.12887833932527543     
 ALPHA AFTER:   0.11841918114588464     
  Cycle:    124 Energy:      -462.130863  Gnorm:      1.628290  CPU:    0.571
 Line minimisation2
 ALPHA BEFORE:   0.11841918114588464     
 ALPHA AFTER:    8.1673547810892602E-002
  Cycle:    125 Energy:      -462.379599  Gnorm:      1.147277  CPU:    0.575
 Line minimisation2
 ALPHA BEFORE:    8.1673547810892602E-002
 ALPHA AFTER:    8.8454699428189981E-002
  Cycle:    126 Energy:      -462.519130  Gnorm:      1.313381  CPU:    0.580
 Line minimisation2
 ALPHA BEFORE:    8.8454699428189981E-002
 ALPHA AFTER:    9.3758431333501424E-002
  Cycle:    127 Energy:      -462.705732  Gnorm:      1.264894  CPU:    0.585
 Line minimisation2
 ALPHA BEFORE:    9.3758431333501424E-002
 ALPHA AFTER:    7.6426325270847861E-002
  Cycle:    128 Energy:      -462.846218  Gnorm:      1.259228  CPU:    0.589
 Line minimisation2
 ALPHA BEFORE:    7.6426325270847861E-002
 ALPHA AFTER:    8.6546876768105449E-002
  Cycle:    129 Energy:      -463.007175  Gnorm:      0.932520  CPU:    0.594
 Line minimisation2
 ALPHA BEFORE:    8.6546876768105449E-002
 ALPHA AFTER:    6.9298031640400007E-002
  Cycle:    130 Energy:      -463.076113  Gnorm:      0.932917  CPU:    0.599
 Line minimisation2
 ALPHA BEFORE:    6.9298031640400007E-002
 ALPHA AFTER:    4.6979386054419446E-002
  Cycle:    131 Energy:      -463.122382  Gnorm:      0.681006  CPU:    0.603
 Line minimisation2
 ALPHA BEFORE:    4.6979386054419446E-002
 ALPHA AFTER:   0.14472753293730264     
  Cycle:    132 Energy:      -463.200932  Gnorm:      0.921578  CPU:    0.607
 Perform trimming
 Line minimisation2
 ALPHA BEFORE:   0.14472753293730264     
 ALPHA AFTER:    7.8581953669150634E-002
  Cycle:    133 Energy:      -463.256052  Gnorm:      0.524555  CPU:    0.611
 Line minimisation2
 ALPHA BEFORE:    7.8581953669150634E-002
 ALPHA AFTER:   0.20173959179946824     
  Cycle:    134 Energy:      -463.320682  Gnorm:      0.622081  CPU:    0.616
 Perform trimming
 Line minimisation2
 ALPHA BEFORE:   0.20173959179946824     
 ALPHA AFTER:    6.2293737713052015E-002
  Cycle:    135 Energy:      -463.343315  Gnorm:      0.569376  CPU:    0.621
 Line minimisation2
 ALPHA BEFORE:    6.2293737713052015E-002
 ALPHA AFTER:    9.6866689709531550E-002
  Cycle:    136 Energy:      -463.379274  Gnorm:      0.559345  CPU:    0.626
 Line minimisation2
 ALPHA BEFORE:    9.6866689709531550E-002
 ALPHA AFTER:    6.8445104705724777E-002
  Cycle:    137 Energy:      -463.404195  Gnorm:      0.525227  CPU:    0.630
 Line minimisation2
 ALPHA BEFORE:    6.8445104705724777E-002
 ALPHA AFTER:   0.11435218274886383     
  Cycle:    138 Energy:      -463.440559  Gnorm:      0.599026  CPU:    0.635
 Line minimisation2
 ALPHA BEFORE:   0.11435218274886383     
 ALPHA AFTER:    7.0698622270526909E-002
  Cycle:    139 Energy:      -463.470362  Gnorm:      0.611303  CPU:    0.639
 Line minimisation2
 ALPHA BEFORE:    7.0698622270526909E-002
 ALPHA AFTER:    4.6690710593712263E-002
  Cycle:    140 Energy:      -463.490530  Gnorm:      0.479250  CPU:    0.642
 Line minimisation2
 ALPHA BEFORE:    4.6690710593712263E-002
 ALPHA AFTER:    8.6944131054250667E-002
  Cycle:    141 Energy:      -463.513357  Gnorm:      0.422883  CPU:    0.647
 Line minimisation2
 ALPHA BEFORE:    8.6944131054250667E-002
 ALPHA AFTER:    7.9571005747539655E-002
  Cycle:    142 Energy:      -463.529621  Gnorm:      0.441029  CPU:    0.651
 Line minimisation2
 ALPHA BEFORE:    7.9571005747539655E-002
 ALPHA AFTER:    7.9377670210452694E-002
  Cycle:    143 Energy:      -463.547122  Gnorm:      0.439780  CPU:    0.656
 Line minimisation2
 ALPHA BEFORE:    7.9377670210452694E-002
 ALPHA AFTER:    8.5501606634141650E-002
  Cycle:    144 Energy:      -463.565698  Gnorm:      0.556263  CPU:    0.661
 Perform trimming
 Line minimisation2
 ALPHA BEFORE:    8.5501606634141650E-002
 ALPHA AFTER:    8.6807327661669556E-002
  Cycle:    145 Energy:      -463.593562  Gnorm:      0.446513  CPU:    0.666
 Line minimisation2
 ALPHA BEFORE:    8.6807327661669556E-002
 ALPHA AFTER:   0.24340366383083478     
  Cycle:    146 Energy:      -463.651390  Gnorm:      0.549502  CPU:    0.671
 Perform trimming
 Line minimisation2
 ALPHA BEFORE:   0.24340366383083478     
 ALPHA AFTER:   0.14501061195312390     
  Cycle:    147 Energy:      -463.696374  Gnorm:      0.551318  CPU:    0.675
 Line minimisation2
 ALPHA BEFORE:   0.14501061195312390     
 ALPHA AFTER:    5.7080824610150932E-002
  Cycle:    148 Energy:      -463.716390  Gnorm:      0.442249  CPU:    0.679
 Line minimisation2
 ALPHA BEFORE:    5.7080824610150932E-002
 ALPHA AFTER:   0.28820700543471239     
  Cycle:    149 Energy:      -463.781475  Gnorm:      1.258128  CPU:    0.684
 Line minimisation2
 ALPHA BEFORE:   0.28820700543471239     
 ALPHA AFTER:    2.2790165709954308E-002
  Cycle:    150 Energy:      -463.823359  Gnorm:      0.406966  CPU:    0.689
 Line minimisation2
 ALPHA BEFORE:    2.2790165709954308E-002
 ALPHA AFTER:   0.10238336380044422     
  Cycle:    151 Energy:      -463.842636  Gnorm:      0.529338  CPU:    0.694
 Perform trimming
 Line minimisation2
 ALPHA BEFORE:   0.10238336380044422     
 ALPHA AFTER:   0.10536640822534397     
  Cycle:    152 Energy:      -463.866766  Gnorm:      0.403437  CPU:    0.699
 Line minimisation2
 ALPHA BEFORE:   0.10536640822534397     
 ALPHA AFTER:    9.7214400363606818E-002
  Cycle:    153 Energy:      -463.884692  Gnorm:      0.456061  CPU:    0.704
 Perform trimming
 Line minimisation2
 ALPHA BEFORE:    9.7214400363606818E-002
 ALPHA AFTER:    6.1491012672287820E-002
  Cycle:    154 Energy:      -463.898307  Gnorm:      0.381795  CPU:    0.708
 Line minimisation2
 ALPHA BEFORE:    6.1491012672287820E-002
 ALPHA AFTER:   0.18670775541287221     
  Cycle:    155 Energy:      -463.930573  Gnorm:      0.418913  CPU:    0.713
 Perform trimming
 Line minimisation2
 ALPHA BEFORE:   0.18670775541287221     
 ALPHA AFTER:    6.9579402729097475E-002
  Cycle:    156 Energy:      -463.942898  Gnorm:      0.367095  CPU:    0.717
 Line minimisation2
 ALPHA BEFORE:    6.9579402729097475E-002
 ALPHA AFTER:    9.4680995655657976E-002
  Cycle:    157 Energy:      -463.957730  Gnorm:      0.428258  CPU:    0.721
 Perform trimming
 Line minimisation2
 ALPHA BEFORE:    9.4680995655657976E-002
 ALPHA AFTER:    6.4089982848448426E-002
  Cycle:    158 Energy:      -463.970750  Gnorm:      0.424018  CPU:    0.725
 Line minimisation2
 ALPHA BEFORE:    6.4089982848448426E-002
 ALPHA AFTER:    8.4381592214829215E-002
  Cycle:    159 Energy:      -463.988002  Gnorm:      0.327319  CPU:    0.730
 Line minimisation2
 ALPHA BEFORE:    8.4381592214829215E-002
 ALPHA AFTER:    7.8536470337314604E-002
  Cycle:    160 Energy:      -463.997794  Gnorm:      0.314359  CPU:    0.735
 Line minimisation2
 ALPHA BEFORE:    7.8536470337314604E-002
 ALPHA AFTER:    8.6655387539091175E-002
  Cycle:    161 Energy:      -464.007348  Gnorm:      0.329160  CPU:    0.739
 Line minimisation2
 ALPHA BEFORE:    8.6655387539091175E-002
 ALPHA AFTER:   0.12831374955843525     
  Cycle:    162 Energy:      -464.023653  Gnorm:      0.412663  CPU:    0.745
 Perform trimming
 Line minimisation2
 ALPHA BEFORE:   0.12831374955843525     
 ALPHA AFTER:    5.6080312672581956E-002
  Cycle:    163 Energy:      -464.033047  Gnorm:      0.360360  CPU:    0.749
 Line minimisation2
 ALPHA BEFORE:    5.6080312672581956E-002
 ALPHA AFTER:   0.15152849652763412     
  Cycle:    164 Energy:      -464.053835  Gnorm:      0.444545  CPU:    0.754
 Perform trimming
 Line minimisation2
 ALPHA BEFORE:   0.15152849652763412     
 ALPHA AFTER:   0.10957383019808130     
  Cycle:    165 Energy:      -464.071335  Gnorm:      0.500695  CPU:    0.758
 Line minimisation2
 ALPHA BEFORE:   0.10957383019808130     
 ALPHA AFTER:    5.4786915099040649E-002
  Cycle:    166 Energy:      -464.086759  Gnorm:      0.350159  CPU:    0.762
 Line minimisation2
 ALPHA BEFORE:    5.4786915099040649E-002
 ALPHA AFTER:    8.3418060894136142E-002
  Cycle:    167 Energy:      -464.098687  Gnorm:      0.452712  CPU:    0.767
 Perform trimming
 Line minimisation2
 ALPHA BEFORE:    8.3418060894136142E-002
 ALPHA AFTER:   0.15614523453508430     
  Cycle:    168 Energy:      -464.131939  Gnorm:      0.516157  CPU:    0.772
 Line minimisation2
 ALPHA BEFORE:   0.15614523453508430     
 ALPHA AFTER:    6.9501149409892146E-002
  Cycle:    169 Energy:      -464.153526  Gnorm:      0.556197  CPU:    0.776
 Line minimisation2
 ALPHA BEFORE:    6.9501149409892146E-002
 ALPHA AFTER:    4.0955817564766267E-002
  Cycle:    170 Energy:      -464.168106  Gnorm:      0.451976  CPU:    0.780
 Line minimisation2
 ALPHA BEFORE:    4.0955817564766267E-002
 ALPHA AFTER:    8.0932559147086899E-002
  Cycle:    171 Energy:      -464.187253  Gnorm:      0.389350  CPU:    0.785
 Line minimisation2
 ALPHA BEFORE:    8.0932559147086899E-002
 ALPHA AFTER:    6.0247358753059990E-002
  Cycle:    172 Energy:      -464.196565  Gnorm:      0.348670  CPU:    0.789
 Line minimisation2
 ALPHA BEFORE:    6.0247358753059990E-002
 ALPHA AFTER:    8.0599544726021238E-002
  Cycle:    173 Energy:      -464.206526  Gnorm:      0.331002  CPU:    0.794
 Line minimisation2
 ALPHA BEFORE:    8.0599544726021238E-002
 ALPHA AFTER:    9.3056917605441561E-002
  Cycle:    174 Energy:      -464.218227  Gnorm:      0.408623  CPU:    0.799
 Perform trimming
 Line minimisation2
 ALPHA BEFORE:    9.3056917605441561E-002
 ALPHA AFTER:    8.3228646285133906E-002
  Cycle:    175 Energy:      -464.231621  Gnorm:      0.311549  CPU:    0.803
 Line minimisation2
 ALPHA BEFORE:    8.3228646285133906E-002
 ALPHA AFTER:   0.14161432314256694     
  Cycle:    176 Energy:      -464.247241  Gnorm:      0.424207  CPU:    0.807
 Perform trimming
 Line minimisation2
 ALPHA BEFORE:   0.14161432314256694     
 ALPHA AFTER:    7.9273431840804875E-002
  Cycle:    177 Energy:      -464.258415  Gnorm:      0.371792  CPU:    0.811
 Line minimisation2
 ALPHA BEFORE:    7.9273431840804875E-002
 ALPHA AFTER:    7.8200221604237147E-002
  Cycle:    178 Energy:      -464.271048  Gnorm:      0.331118  CPU:    0.816
 Line minimisation2
 ALPHA BEFORE:    7.8200221604237147E-002
 ALPHA AFTER:    5.9813413502236810E-002
  Cycle:    179 Energy:      -464.278236  Gnorm:      0.348233  CPU:    0.820
 Line minimisation2
 ALPHA BEFORE:    5.9813413502236810E-002
 ALPHA AFTER:    3.9869830916799423E-002
  Cycle:    180 Energy:      -464.283865  Gnorm:      0.242924  CPU:    0.824
 Line minimisation2
 ALPHA BEFORE:    3.9869830916799423E-002
 ALPHA AFTER:    5.8592799550529123E-002
  Cycle:    181 Energy:      -464.287885  Gnorm:      0.218483  CPU:    0.828
 Line minimisation2
 ALPHA BEFORE:    5.8592799550529123E-002
 ALPHA AFTER:   0.19711352769105728     
  Cycle:    182 Energy:      -464.298407  Gnorm:      0.387093  CPU:    0.833
 Perform trimming
 Line minimisation2
 ALPHA BEFORE:   0.19711352769105728     
 ALPHA AFTER:   0.13645372872675310     
  Cycle:    183 Energy:      -464.308358  Gnorm:      0.309614  CPU:    0.837
 Line minimisation2
 ALPHA BEFORE:   0.13645372872675310     
 ALPHA AFTER:   0.10371917531803190     
  Cycle:    184 Energy:      -464.319804  Gnorm:      0.401749  CPU:    0.841
 Perform trimming
 Line minimisation2
 ALPHA BEFORE:   0.10371917531803190     
 ALPHA AFTER:    7.1317430905744689E-002
  Cycle:    185 Energy:      -464.329060  Gnorm:      0.248076  CPU:    0.845
 Line minimisation2
 ALPHA BEFORE:    7.1317430905744689E-002
 ALPHA AFTER:   0.16089433000771947     
  Cycle:    186 Energy:      -464.340378  Gnorm:      0.307651  CPU:    0.850
 Perform trimming
 Line minimisation2
 ALPHA BEFORE:   0.16089433000771947     
 ALPHA AFTER:   0.11902995982932925     
  Cycle:    187 Energy:      -464.349402  Gnorm:      0.424851  CPU:    0.854
 Perform trimming
 Line minimisation2
 ALPHA BEFORE:   0.11902995982932925     
 ALPHA AFTER:    7.7003745914416527E-002
  Cycle:    188 Energy:      -464.361441  Gnorm:      0.318830  CPU:    0.858
 Line minimisation2
 ALPHA BEFORE:    7.7003745914416527E-002
 ALPHA AFTER:   0.10934293467422690     
  Cycle:    189 Energy:      -464.374623  Gnorm:      0.477320  CPU:    0.863
 Line minimisation2
 ALPHA BEFORE:   0.10934293467422690     
 ALPHA AFTER:    2.7043650095453228E-002
  Cycle:    190 Energy:      -464.381745  Gnorm:      0.234706  CPU:    0.868
 Line minimisation2
 ALPHA BEFORE:    2.7043650095453228E-002
 ALPHA AFTER:    7.9157222542574512E-002
  Cycle:    191 Energy:      -464.386535  Gnorm:      0.207573  CPU:    0.873
 Line minimisation2
 ALPHA BEFORE:    7.9157222542574512E-002
 ALPHA AFTER:    9.8551713557103349E-002
  Cycle:    192 Energy:      -464.391180  Gnorm:      0.248746  CPU:    0.877
 Perform trimming
 Line minimisation2
 ALPHA BEFORE:    9.8551713557103349E-002
 ALPHA AFTER:   0.10913207872152400     
  Cycle:    193 Energy:      -464.398287  Gnorm:      0.227751  CPU:    0.881
 Line minimisation2
 ALPHA BEFORE:   0.10913207872152400     
 ALPHA AFTER:   0.17294084222378811     
  Cycle:    194 Energy:      -464.408491  Gnorm:      0.378192  CPU:    0.886
 Perform trimming
 Line minimisation2
 ALPHA BEFORE:   0.17294084222378811     
 ALPHA AFTER:   0.17073206902811680     
  Cycle:    195 Energy:      -464.421833  Gnorm:      0.538413  CPU:    0.891
 Perform trimming
 Line minimisation2
 ALPHA BEFORE:   0.17073206902811680     
 ALPHA AFTER:   0.14031760313462319     
  Cycle:    196 Energy:      -464.453223  Gnorm:      0.674402  CPU:    0.895
 Perform trimming
 Line minimisation2
 ALPHA BEFORE:   0.14031760313462319     
 ALPHA AFTER:   0.10719001090156036     
  Cycle:    197 Energy:      -464.490439  Gnorm:      0.621165  CPU:    0.899
 Line minimisation2
 ALPHA BEFORE:   0.10719001090156036     
 ALPHA AFTER:    9.7515697321873054E-002
  Cycle:    198 Energy:      -464.533727  Gnorm:      0.742237  CPU:    0.903
 Perform trimming
 Line minimisation2
 ALPHA BEFORE:    9.7515697321873054E-002
 ALPHA AFTER:    7.7788442695776616E-002
  Cycle:    199 Energy:      -464.569270  Gnorm:      0.513691  CPU:    0.907
 Line minimisation2
 ALPHA BEFORE:    7.7788442695776616E-002
 ALPHA AFTER:    4.7889440341687253E-002
  Cycle:    200 Energy:      -464.584050  Gnorm:      0.398549  CPU:    0.911
 Line minimisation2
 ALPHA BEFORE:    4.7889440341687253E-002
 ALPHA AFTER:    4.7587773578976679E-002
  Cycle:    201 Energy:      -464.592983  Gnorm:      0.261471  CPU:    0.916
 Line minimisation2
 ALPHA BEFORE:    4.7587773578976679E-002
 ALPHA AFTER:    9.5698031284460236E-002
  Cycle:    202 Energy:      -464.600513  Gnorm:      0.235466  CPU:    0.921
 Line minimisation2
 ALPHA BEFORE:    9.5698031284460236E-002
 ALPHA AFTER:    5.9667124171482518E-002
  Cycle:    203 Energy:      -464.603893  Gnorm:      0.263690  CPU:    0.925
 Line minimisation2
 ALPHA BEFORE:    5.9667124171482518E-002
 ALPHA AFTER:   0.11738954487309350     
  Cycle:    204 Energy:      -464.612673  Gnorm:      0.232025  CPU:    0.930
 Line minimisation2
 ALPHA BEFORE:   0.11738954487309350     
 ALPHA AFTER:   0.12750563121004260     
  Cycle:    205 Energy:      -464.620549  Gnorm:      0.310819  CPU:    0.935
 Perform trimming
 Line minimisation2
 ALPHA BEFORE:   0.12750563121004260     
 ALPHA AFTER:   0.12754914976068851     
  Cycle:    206 Energy:      -464.630073  Gnorm:      0.438676  CPU:    0.939
 Perform trimming
 Line minimisation2
 ALPHA BEFORE:   0.12754914976068851     
 ALPHA AFTER:   0.13131886114557242     
  Cycle:    207 Energy:      -464.648156  Gnorm:      0.499353  CPU:    0.944
 Perform trimming
 Line minimisation2
 ALPHA BEFORE:   0.13131886114557242     
 ALPHA AFTER:    4.8082703548459692E-002
  Cycle:    208 Energy:      -464.660818  Gnorm:      0.296364  CPU:    0.948
 Line minimisation2
 ALPHA BEFORE:    4.8082703548459692E-002
 ALPHA AFTER:    9.3297193121416419E-002
  Cycle:    209 Energy:      -464.670249  Gnorm:      0.322372  CPU:    0.952
 Line minimisation2
 ALPHA BEFORE:    9.3297193121416419E-002
 ALPHA AFTER:    4.4598052533422756E-002
  Cycle:    210 Energy:      -464.675596  Gnorm:      0.268895  CPU:    0.956
 Line minimisation2
 ALPHA BEFORE:    4.4598052533422756E-002
 ALPHA AFTER:    6.1280136650245176E-002
  Cycle:    211 Energy:      -464.680683  Gnorm:      0.207506  CPU:    0.960
 Line minimisation2
 ALPHA BEFORE:    6.1280136650245176E-002
 ALPHA AFTER:   0.16210889499691386     
  Cycle:    212 Energy:      -464.688457  Gnorm:      0.330937  CPU:    0.965
 Perform trimming
 Line minimisation2
 ALPHA BEFORE:   0.16210889499691386     
 ALPHA AFTER:    9.1878020521343653E-002
  Cycle:    213 Energy:      -464.694873  Gnorm:      0.235161  CPU:    0.969
 Line minimisation2
 ALPHA BEFORE:    9.1878020521343653E-002
 ALPHA AFTER:    7.8990764354874649E-002
  Cycle:    214 Energy:      -464.699862  Gnorm:      0.260584  CPU:    0.973
 Perform trimming
 Line minimisation2
 ALPHA BEFORE:    7.8990764354874649E-002
 ALPHA AFTER:   0.10997843542902894     
  Cycle:    215 Energy:      -464.707615  Gnorm:      0.332022  CPU:    0.977
 Perform trimming
 Line minimisation2
 ALPHA BEFORE:   0.10997843542902894     
 ALPHA AFTER:   0.15751146979919703     
  Cycle:    216 Energy:      -464.723635  Gnorm:      0.341756  CPU:    0.982
 Line minimisation2
 ALPHA BEFORE:   0.15751146979919703     
 ALPHA AFTER:    4.6447542043782424E-002
  Cycle:    217 Energy:      -464.729835  Gnorm:      0.319153  CPU:    0.986
 Line minimisation2
 ALPHA BEFORE:    4.6447542043782424E-002
 ALPHA AFTER:   0.17814050854436078     
  Cycle:    218 Energy:      -464.750866  Gnorm:      0.394659  CPU:    0.991
 Perform trimming
 Line minimisation2
 ALPHA BEFORE:   0.17814050854436078     
 ALPHA AFTER:   0.10022155066621162     
  Cycle:    219 Energy:      -464.767774  Gnorm:      0.567029  CPU:    0.995
 Line minimisation2
 ALPHA BEFORE:   0.10022155066621162     
 ALPHA AFTER:    3.9399425337158990E-002
  Cycle:    220 Energy:      -464.782264  Gnorm:      0.356155  CPU:    0.999
 Line minimisation2
 ALPHA BEFORE:    3.9399425337158990E-002
 ALPHA AFTER:    8.9332399317558001E-002
  Cycle:    221 Energy:      -464.795346  Gnorm:      0.291314  CPU:    1.003
 Line minimisation2
 ALPHA BEFORE:    8.9332399317558001E-002
 ALPHA AFTER:    4.4666199658779000E-002
  Cycle:    222 Energy:      -464.799541  Gnorm:      0.224946  CPU:    1.007
 Line minimisation2
 ALPHA BEFORE:    4.4666199658779000E-002
 ALPHA AFTER:   0.22233309982938951     
  Cycle:    223 Energy:      -464.811765  Gnorm:      0.373437  CPU:    1.012
 Perform trimming
 Line minimisation2
 ALPHA BEFORE:   0.22233309982938951     
 ALPHA AFTER:    9.6026842853121200E-002
  Cycle:    224 Energy:      -464.818871  Gnorm:      0.304145  CPU:    1.016
 Line minimisation2
 ALPHA BEFORE:    9.6026842853121200E-002
 ALPHA AFTER:    5.1240568615129690E-002
  Cycle:    225 Energy:      -464.824309  Gnorm:      0.230292  CPU:    1.020
 Line minimisation2
 ALPHA BEFORE:    5.1240568615129690E-002
 ALPHA AFTER:    8.7294920246788116E-002
  Cycle:    226 Energy:      -464.829671  Gnorm:      0.281751  CPU:    1.025
 Perform trimming
 Line minimisation2
 ALPHA BEFORE:    8.7294920246788116E-002
 ALPHA AFTER:   0.13021781812831981     
  Cycle:    227 Energy:      -464.840261  Gnorm:      0.243402  CPU:    1.030
 Line minimisation2
 ALPHA BEFORE:   0.13021781812831981     
 ALPHA AFTER:    5.0315507521650316E-002
  Cycle:    228 Energy:      -464.843493  Gnorm:      0.227205  CPU:    1.034
 Line minimisation2
 ALPHA BEFORE:    5.0315507521650316E-002
 ALPHA AFTER:   0.15313135343252582     
  Cycle:    229 Energy:      -464.852337  Gnorm:      0.381125  CPU:    1.040
 Line minimisation2
 ALPHA BEFORE:   0.15313135343252582     
 ALPHA AFTER:    3.6166829411822234E-002
  Cycle:    230 Energy:      -464.858394  Gnorm:      0.242843  CPU:    1.044
 Line minimisation2
 ALPHA BEFORE:    3.6166829411822234E-002
 ALPHA AFTER:    5.8196173066998452E-002
  Cycle:    231 Energy:      -464.862523  Gnorm:      0.190586  CPU:    1.049
 Line minimisation2
 ALPHA BEFORE:    5.8196173066998452E-002
 ALPHA AFTER:    7.1222595915051173E-002
  Cycle:    232 Energy:      -464.865557  Gnorm:      0.203262  CPU:    1.055
 Line minimisation2
 ALPHA BEFORE:    7.1222595915051173E-002
 ALPHA AFTER:   0.11475599169193412     
  Cycle:    233 Energy:      -464.870841  Gnorm:      0.219151  CPU:    1.060
 Line minimisation2
 ALPHA BEFORE:   0.11475599169193412     
 ALPHA AFTER:    8.0250403683740992E-002
  Cycle:    234 Energy:      -464.875238  Gnorm:      0.259993  CPU:    1.064
 Perform trimming
 Line minimisation2
 ALPHA BEFORE:    8.0250403683740992E-002
 ALPHA AFTER:    8.3129464323709185E-002
  Cycle:    235 Energy:      -464.881445  Gnorm:      0.277327  CPU:    1.069
 Line minimisation2
 ALPHA BEFORE:    8.3129464323709185E-002
 ALPHA AFTER:   0.34156473216185462     
  Cycle:    236 Energy:      -464.921127  Gnorm:      0.532116  CPU:    1.075
 Perform trimming
 Line minimisation2
 ALPHA BEFORE:   0.34156473216185462     
 ALPHA AFTER:   0.17078236608092731     
  Cycle:    237 Energy:      -464.952516  Gnorm:      0.543623  CPU:    1.079
 Perform trimming
 Line minimisation2
 ALPHA BEFORE:   0.17078236608092731     
 ALPHA AFTER:    7.8067897465212310E-002
  Cycle:    238 Energy:      -464.976996  Gnorm:      0.481399  CPU:    1.083
 Line minimisation2
 ALPHA BEFORE:    7.8067897465212310E-002
 ALPHA AFTER:    8.2480415341809291E-002
  Cycle:    239 Energy:      -464.998642  Gnorm:      0.653915  CPU:    1.087
 Line minimisation2
 ALPHA BEFORE:    8.2480415341809291E-002
 ALPHA AFTER:    3.1111386609321157E-002
  Cycle:    240 Energy:      -465.013991  Gnorm:      0.328690  CPU:    1.091
 Line minimisation2
 ALPHA BEFORE:    3.1111386609321157E-002
 ALPHA AFTER:    6.4122582368303538E-002
  Cycle:    241 Energy:      -465.022057  Gnorm:      0.324882  CPU:    1.096
 Line minimisation2
 ALPHA BEFORE:    6.4122582368303538E-002
 ALPHA AFTER:    7.3298697373781169E-002
  Cycle:    242 Energy:      -465.031032  Gnorm:      0.320970  CPU:    1.101
 Line minimisation2
 ALPHA BEFORE:    7.3298697373781169E-002
 ALPHA AFTER:   0.13308653964992542     
  Cycle:    243 Energy:      -465.047057  Gnorm:      0.322972  CPU:    1.106
 Line minimisation2
 ALPHA BEFORE:   0.13308653964992542     
 ALPHA AFTER:    7.2616740791656351E-002
  Cycle:    244 Energy:      -465.055451  Gnorm:      0.329266  CPU:    1.110
 Line minimisation2
 ALPHA BEFORE:    7.2616740791656351E-002
 ALPHA AFTER:    4.3303918307144917E-002
  Cycle:    245 Energy:      -465.061096  Gnorm:      0.177756  CPU:    1.114
 Line minimisation2
 ALPHA BEFORE:    4.3303918307144917E-002
 ALPHA AFTER:   0.19207769090828622     
  Cycle:    246 Energy:      -465.068162  Gnorm:      0.285326  CPU:    1.119
 Perform trimming
 Line minimisation2
 ALPHA BEFORE:   0.19207769090828622     
 ALPHA AFTER:    7.8148723538207787E-002
  Cycle:    247 Energy:      -465.072177  Gnorm:      0.213344  CPU:    1.123
 Line minimisation2
 ALPHA BEFORE:    7.8148723538207787E-002
 ALPHA AFTER:   0.11855124329074364     
  Cycle:    248 Energy:      -465.078203  Gnorm:      0.271289  CPU:    1.127
 Perform trimming
 Line minimisation2
 ALPHA BEFORE:   0.11855124329074364     
 ALPHA AFTER:    9.2397887314121824E-002
  Cycle:    249 Energy:      -465.083558  Gnorm:      0.278394  CPU:    1.131
 Line minimisation2
 ALPHA BEFORE:    9.2397887314121824E-002
 ALPHA AFTER:    4.7207122109781494E-002
  Cycle:    250 Energy:      -465.087773  Gnorm:      0.231906  CPU:    1.135
 Line minimisation2
 ALPHA BEFORE:    4.7207122109781494E-002
 ALPHA AFTER:    4.7128069507488123E-002
  Cycle:    251 Energy:      -465.090702  Gnorm:      0.147819  CPU:    1.139
 Line minimisation2
 ALPHA BEFORE:    4.7128069507488123E-002
 ALPHA AFTER:   0.22356403475374409     
  Cycle:    252 Energy:      -465.096915  Gnorm:      0.216088  CPU:    1.145
 Perform trimming
 Line minimisation2
 ALPHA BEFORE:   0.22356403475374409     
 ALPHA AFTER:   0.18411268901806618     
  Cycle:    253 Energy:      -465.102935  Gnorm:      0.349201  CPU:    1.149
 Perform trimming
 Line minimisation2
 ALPHA BEFORE:   0.18411268901806618     
 ALPHA AFTER:   0.11059121784894564     
  Cycle:    254 Energy:      -465.109939  Gnorm:      0.255209  CPU:    1.153
 Line minimisation2
 ALPHA BEFORE:   0.11059121784894564     
 ALPHA AFTER:   0.10750066925174161     
  Cycle:    255 Energy:      -465.118325  Gnorm:      0.348151  CPU:    1.158
 Perform trimming
 Line minimisation2
 ALPHA BEFORE:   0.10750066925174161     
 ALPHA AFTER:   0.11741603616979379     
  Cycle:    256 Energy:      -465.128384  Gnorm:      0.313924  CPU:    1.163
 Line minimisation2
 ALPHA BEFORE:   0.11741603616979379     
 ALPHA AFTER:   0.10372504955431662     
  Cycle:    257 Energy:      -465.140089  Gnorm:      0.373600  CPU:    1.166
 Perform trimming
 Line minimisation2
 ALPHA BEFORE:   0.10372504955431662     
 ALPHA AFTER:    5.6796262871720668E-002
  Cycle:    258 Energy:      -465.147849  Gnorm:      0.295722  CPU:    1.170
 Line minimisation2
 ALPHA BEFORE:    5.6796262871720668E-002
 ALPHA AFTER:   0.13961599822424448     
  Cycle:    259 Energy:      -465.163021  Gnorm:      0.336527  CPU:    1.175
 Line minimisation2
 ALPHA BEFORE:   0.13961599822424448     
 ALPHA AFTER:    5.0950620694392539E-002
  Cycle:    260 Energy:      -465.169743  Gnorm:      0.189538  CPU:    1.179
 Line minimisation2
 ALPHA BEFORE:    5.0950620694392539E-002
 ALPHA AFTER:    6.7219197766269639E-002
  Cycle:    261 Energy:      -465.172523  Gnorm:      0.188641  CPU:    1.184
 Line minimisation2
 ALPHA BEFORE:    6.7219197766269639E-002
 ALPHA AFTER:    9.5211683972484432E-002
  Cycle:    262 Energy:      -465.176397  Gnorm:      0.232385  CPU:    1.188
 Perform trimming
 Line minimisation2
 ALPHA BEFORE:    9.5211683972484432E-002
 ALPHA AFTER:    6.4455899189830523E-002
  Cycle:    263 Energy:      -465.179913  Gnorm:      0.208011  CPU:    1.192
 Line minimisation2
 ALPHA BEFORE:    6.4455899189830523E-002
 ALPHA AFTER:   0.22478697039570075     
  Cycle:    264 Energy:      -465.190942  Gnorm:      0.307376  CPU:    1.197
 Perform trimming
 Line minimisation2
 ALPHA BEFORE:   0.22478697039570075     
 ALPHA AFTER:   0.13101469074449154     
  Cycle:    265 Energy:      -465.198886  Gnorm:      0.408553  CPU:    1.201
 Perform trimming
 Line minimisation2
 ALPHA BEFORE:   0.13101469074449154     
 ALPHA AFTER:   0.10799898215605669     
  Cycle:    266 Energy:      -465.215314  Gnorm:      0.487043  CPU:    1.205
 Perform trimming
 Line minimisation2
 ALPHA BEFORE:   0.10799898215605669     
 ALPHA AFTER:   0.12543636029909289     
  Cycle:    267 Energy:      -465.240467  Gnorm:      0.535063  CPU:    1.210
 Perform trimming
 Line minimisation2
 ALPHA BEFORE:   0.12543636029909289     
 ALPHA AFTER:   0.12498231710608804     
  Cycle:    268 Energy:      -465.275986  Gnorm:      0.699398  CPU:    1.215
 Perform trimming
 Line minimisation2
 ALPHA BEFORE:   0.12498231710608804     
 ALPHA AFTER:    8.5186988994478019E-002
  Cycle:    269 Energy:      -465.307360  Gnorm:      0.532998  CPU:    1.219
 Line minimisation2
 ALPHA BEFORE:    8.5186988994478019E-002
 ALPHA AFTER:    4.6883945762949013E-002
  Cycle:    270 Energy:      -465.322836  Gnorm:      0.506863  CPU:    1.223
 Line minimisation2
 ALPHA BEFORE:    4.6883945762949013E-002
 ALPHA AFTER:    7.0933362973963576E-002
  Cycle:    271 Energy:      -465.344578  Gnorm:      0.349455  CPU:    1.227
 Line minimisation2
 ALPHA BEFORE:    7.0933362973963576E-002
 ALPHA AFTER:    7.9712928871074465E-002
  Cycle:    272 Energy:      -465.355768  Gnorm:      0.326451  CPU:    1.232
 Line minimisation2
 ALPHA BEFORE:    7.9712928871074465E-002
 ALPHA AFTER:    5.9158184686808273E-002
  Cycle:    273 Energy:      -465.363067  Gnorm:      0.300090  CPU:    1.236
 Line minimisation2
 ALPHA BEFORE:    5.9158184686808273E-002
 ALPHA AFTER:    8.7917689660125350E-002
  Cycle:    274 Energy:      -465.372169  Gnorm:      0.280535  CPU:    1.241
 Line minimisation2
 ALPHA BEFORE:    8.7917689660125350E-002
 ALPHA AFTER:    5.8474242235607696E-002
  Cycle:    275 Energy:      -465.377489  Gnorm:      0.229403  CPU:    1.245
 Line minimisation2
 ALPHA BEFORE:    5.8474242235607696E-002
 ALPHA AFTER:   0.19945141842550435     
  Cycle:    276 Energy:      -465.389629  Gnorm:      0.240035  CPU:    1.250
 Line minimisation2
 ALPHA BEFORE:   0.19945141842550435     
 ALPHA AFTER:    9.1669465957453664E-002
  Cycle:    277 Energy:      -465.395927  Gnorm:      0.291114  CPU:    1.254
 Perform trimming
 Line minimisation2
 ALPHA BEFORE:    9.1669465957453664E-002
 ALPHA AFTER:    4.5597279722273669E-002
  Cycle:    278 Energy:      -465.400138  Gnorm:      0.188071  CPU:    1.258
 Line minimisation2
 ALPHA BEFORE:    4.5597279722273669E-002
 ALPHA AFTER:   0.42279863986113686     
  Cycle:    279 Energy:      -465.427616  Gnorm:      0.405206  CPU:    1.265
 Line minimisation2
 ALPHA BEFORE:   0.42279863986113686     
 ALPHA AFTER:    0.0000000000000000     
  Cycle:    280 Energy:      -465.427616  Gnorm:      0.405206  CPU:    1.268
 Line minimisation2
 ALPHA BEFORE:    0.0000000000000000     
 ALPHA AFTER:    0.0000000000000000     
  Cycle:    281 Energy:      -465.427616  Gnorm:      0.405206  CPU:    1.271
 Line minimisation2
 ALPHA BEFORE:    0.0000000000000000     
 ALPHA AFTER:    0.0000000000000000     


  **** Conditions for a minimum have not been satisfied. However ****
  **** no lower point can be found - treat results with caution  ****
  **** unless gradient norm is small (less than 0.1)             ****


  Final energy =    -465.42761636 eV
  Final Gnorm  =       0.40520621

  Components of energy : 

--------------------------------------------------------------------------------
  Interatomic potentials     =          73.31311374 eV    
  Monopole - monopole (real) =        -293.34934966 eV    
  Monopole - monopole (recip)=        -245.39138045 eV    
  Monopole - monopole (total)=        -538.74073011 eV    
--------------------------------------------------------------------------------
  Total lattice energy       =        -465.42761636 eV    
--------------------------------------------------------------------------------
  Total lattice energy       =          -44906.6503 kJ/(mole unit cells)
--------------------------------------------------------------------------------

  Final fractional coordinates of atoms :

--------------------------------------------------------------------------------
   No.  Atomic        x           y          z          Radius
        Label       (Frac)      (Frac)     (Frac)       (Angs) 
--------------------------------------------------------------------------------
     1  O     c     0.000000    0.333330    0.800000    0.000000
     2  O     c     0.903369    0.266203    0.632238    0.000000
     3  O     c     0.213859    0.673013    0.704173    0.000000
     4  O     c     0.921402    0.685241    0.520236    0.000000
     5  O     c     0.235348    0.478569    0.356459    0.000000
     6  O     c     0.069655    0.657189    0.993023    0.000000
     7  O     c     0.126371    0.062053    0.463744    0.000000
     8  O     c     0.526641    0.371446    0.497129    0.000000
     9  O     c     0.014901    0.732428    0.174799    0.000000
    10  Sr    c     0.016832    0.219638    0.088314    0.000000
    11  Sr    c     0.073150    0.096155    0.907422    0.000000
    12  Sr    c     0.134638    0.023969    0.274883    0.000000
    13  Ti    c     0.833656    0.237014    0.539117    0.000000
    14  Ti    c     0.224394    0.509347    0.451472    0.000000
    15  Ti    c     0.098303    0.233573    0.711238    0.000000
--------------------------------------------------------------------------------

  Final Cartesian lattice vectors (Angstroms) :

        5.460004    0.530046   -0.082959
        0.795068    3.482148   -0.216763
       -0.207398   -0.361271   18.890669


  Final cell parameters and derivatives :

--------------------------------------------------------------------------------
       a            5.486299 Angstrom     dE/de1(xx)    -1.546973 eV/strain
       b            3.578334 Angstrom     dE/de2(yy)     0.984829 eV/strain
       c           18.895261 Angstrom     dE/de3(zz)     1.922001 eV/strain
       alpha       94.680902 Degrees      dE/de4(yz)     0.770610 eV/strain
       beta        91.598091 Degrees      dE/de5(xz)     0.528123 eV/strain
       gamma       71.575408 Degrees      dE/de6(xy)     0.069760 eV/strain
--------------------------------------------------------------------------------

  Primitive cell volume =           350.758896 Angs**3

  Density of cell =      2.606181 g/cm**3

  Non-primitive cell volume =           350.758896 Angs**3


  Final internal derivatives :

--------------------------------------------------------------------------------
   No.  Atomic          a             b             c           Radius
        Label          (eV)          (eV)          (eV)        (eV/Angs)
--------------------------------------------------------------------------------
      1 O     c       0.000000      0.000000      0.000000      0.000000
      2 O     c       0.441476     -0.294740      7.536689      0.000000
      3 O     c       0.096549     -0.164082     -1.409744      0.000000
      4 O     c      -0.653076     -2.032275     -6.194713      0.000000
      5 O     c       0.810284     -0.426512    -10.165525      0.000000
      6 O     c       1.604080      1.258440     -1.876441      0.000000
      7 O     c      -2.120272     -0.435533      4.535844      0.000000
      8 O     c       2.796209     -0.138798     -2.940875      0.000000
      9 O     c      -0.911465      0.935167     -1.336057      0.000000
     10 Sr    c       0.017886      1.093076      0.746852      0.000000
     11 Sr    c       2.215445      1.668205     -2.531796      0.000000
     12 Sr    c       0.219899      0.067630      5.336899      0.000000
     13 Ti    c      -2.131675      0.169114     -2.178196      0.000000
     14 Ti    c      -0.515561     -0.637551      6.637490      0.000000
     15 Ti    c       0.056845     -0.110025     -3.575574      0.000000
--------------------------------------------------------------------------------
  Maximum abs         2.796209      2.032275     10.165525      0.000000
--------------------------------------------------------------------------------


  Time to end of optimisation =       1.2746 seconds

 Exiting ------OPTIONS------

  Peak dynamic memory used =       0.55 MB 


  Timing analysis for GULP :

--------------------------------------------------------------------------------
  Task / Subroutine                                          Time (Seconds)
--------------------------------------------------------------------------------
  Calculation of reciprocal space energy and derivatives          0.1412
  Calculation of real space energy and derivatives                1.1163
  Global summation overhead                                       0.0008
--------------------------------------------------------------------------------
  Total CPU time                                                  1.2747
--------------------------------------------------------------------------------


  Job Finished at 16:32.29 24th January    2020                               

